/*--------------------------------*- C++ -*----------------------------------*\
  =========                 |
  \\      /  F ield         | OpenFOAM: The Open Source CFD Toolbox
   \\    /   O peration     | Website:  https://openfoam.org
    \\  /    A nd           | Version:  13
     \\/     M anipulation  |
\*---------------------------------------------------------------------------*/
FoamFile
{
    format      ascii;
    class       volScalarField;
    location    "4";
    object      CrankNicolson:ddt0(rhoE);
}
// * * * * * * * * * * * * * * * * * * * * * * * * * * * * * * * * * * * * * //

dimensions      [1 -1 -3 0 0 0 0];

internalField   nonuniform List<scalar> 
36576
(
-1.09202e-12
1.58807e-12
-4.31452e-12
2.04676e-12
1.50606e-12
-1.98927e-12
-8.45896e-13
-2.1581e-12
-1.42831e-12
2.03652e-12
1.49772e-12
2.12629e-13
-4.138e-13
-3.09363e-12
-6.37887e-13
1.00509e-11
3.22017e-12
-1.26219e-11
6.02702e-12
1.3735e-11
-1.24802e-11
-4.12677e-11
2.43655e-10
8.57635e-10
6.36195e-09
3.14339e-08
1.30353e-07
4.8368e-07
1.03865e-06
-2.76609e-06
-3.86959e-05
-0.00011384
-4.57798e-05
0.00199051
0.00550891
-0.0383262
0.0319142
-10.2461
0.144476
2.09375
4.02824
3.15458
1.90191
-0.0193434
-0.181572
-1.16641
-1.38932
-0.738621
-1.32551
-1.22533
-0.592422
-0.659606
0.594992
1.23068
2.11784
2.30712
1.57827
0.52347
-0.497703
-1.22457
-1.34479
-1.00509
-0.495665
-0.064968
0.0409948
-0.093312
-0.307175
-0.315951
-0.0493703
0.411924
0.901128
1.0268
-3.98631e-13
-1.52311e-12
-1.82357e-12
2.42853e-12
9.48836e-12
1.18148e-12
-7.60579e-12
-9.96597e-12
3.34379e-12
4.88361e-12
-1.77573e-12
-3.61092e-12
-4.61129e-12
4.86544e-12
6.66043e-12
8.10151e-12
3.59017e-12
-1.63354e-11
1.20108e-12
1.44148e-11
-4.31245e-11
3.94641e-11
3.00297e-10
3.63206e-10
3.50635e-09
2.22686e-08
1.14692e-07
4.3476e-07
8.43604e-07
-1.31681e-06
-2.6347e-05
-0.000128157
-0.000197231
0.000980287
0.00502141
-0.0152665
-0.0344661
-0.329397
-4.33746
-1.52553
-0.0555965
1.35112
1.91521
0.992036
1.08977
0.227425
-0.361148
-1.0439
-1.35199
-1.8307
-1.07266
-0.457392
0.665703
1.62769
2.28826
2.32442
1.55388
0.46587
-0.566125
-1.24854
-1.35018
-1.01725
-0.531336
-0.116456
0.0106264
-0.0630909
-0.207497
-0.190846
0.0364094
0.41715
0.801711
0.866699
1.70374e-12
2.38962e-13
-2.42811e-12
-2.17178e-12
1.90897e-12
1.02897e-12
6.90149e-14
-2.45711e-12
1.42844e-12
2.68598e-13
7.18024e-13
-3.46223e-12
4.01465e-12
2.50593e-12
8.51404e-13
4.87486e-12
-5.38699e-12
-1.19456e-11
1.69136e-11
-1.79011e-11
-1.01158e-10
-1.27365e-10
-3.75958e-10
-2.01436e-09
-7.52606e-09
-2.50649e-08
-9.44034e-08
-3.44018e-07
-1.50965e-06
-3.25136e-06
-3.72522e-06
-8.74886e-06
1.95291e-05
-0.00101323
0.00298558
0.0160825
-0.0230873
9.5341
-6.67621
-4.63694
-3.27615
-2.31753
-0.186527
0.849228
1.29406
1.40266
0.660346
-0.449212
-1.05215
-1.65541
-1.23763
-0.302884
0.717344
1.86357
2.45058
2.33311
1.54234
0.412745
-0.65726
-1.28479
-1.36097
-1.02222
-0.553597
-0.161711
-0.0222535
-0.0359943
-0.101386
-0.0496965
0.14168
0.433576
0.687569
0.663186
1.07283e-12
3.46824e-13
-5.73058e-13
1.06626e-12
2.46888e-12
2.10973e-12
-9.0772e-12
-2.51885e-13
2.39329e-12
3.71423e-12
-5.31206e-13
4.12548e-12
2.20899e-12
-8.09648e-13
2.30369e-12
6.22529e-13
-1.05044e-11
-8.48728e-12
-9.74221e-12
7.11726e-11
3.47222e-11
-1.98308e-10
-1.3994e-09
-4.57661e-09
-1.7983e-08
-6.97986e-08
-2.83756e-07
-1.18429e-06
-4.2057e-06
-9.70961e-06
1.26348e-05
0.000108593
0.000301914
-0.00142126
-0.00429973
0.0262592
-0.000704312
11.067
-7.81166
-5.885
-4.25644
-3.53262
-1.25462
0.589451
1.24827
2.15772
1.13316
-0.232953
-0.973182
-1.38373
-1.20671
-0.00211487
0.853595
2.13646
2.58884
2.30304
1.48148
0.306309
-0.748974
-1.29833
-1.35093
-1.0253
-0.580345
-0.219629
-0.0577555
0.0115461
0.0469559
0.13634
0.269502
0.43538
0.521081
0.391215
7.60244e-14
1.15139e-12
2.09709e-12
1.04688e-12
-2.78017e-12
4.30746e-12
-4.89593e-13
-2.69994e-12
-2.68172e-13
-4.50333e-13
1.41291e-11
7.63818e-12
-5.11288e-12
-7.97474e-12
1.06853e-11
2.33698e-11
-4.59582e-11
1.42901e-11
5.5521e-13
7.3134e-11
-5.12477e-11
-4.20694e-10
-1.45679e-09
-6.59656e-09
-2.50984e-08
-9.58576e-08
-3.92961e-07
-1.60818e-06
-5.55199e-06
-1.38583e-05
2.23954e-06
0.000133936
0.000415957
-0.00151898
-0.0035994
0.0224471
-0.020965
5.81559
-4.42474
-3.87714
-3.06191
-2.43651
-1.63638
0.100289
0.844277
1.44824
1.0796
-0.170578
-0.826701
-0.969995
-0.872282
0.264284
1.20405
2.32758
2.63664
2.22768
1.33058
0.162214
-0.831671
-1.3245
-1.3222
-1.00344
-0.601111
-0.265329
-0.0794076
0.0684633
0.197746
0.316714
0.386572
0.42086
0.334428
0.101324
-2.67591e-12
1.9953e-12
1.12364e-13
6.77719e-12
1.00996e-12
5.48962e-13
1.49709e-12
-6.78106e-13
-7.83091e-13
-2.32246e-12
-9.9755e-13
2.94934e-12
4.75685e-12
-2.51463e-12
1.02256e-13
3.37945e-12
-4.07072e-12
-1.51975e-12
-6.52434e-12
2.31521e-11
-1.07989e-10
-3.23283e-10
-1.87322e-09
-6.86419e-09
-2.54094e-08
-9.73778e-08
-3.8757e-07
-1.55736e-06
-5.84307e-06
-1.65418e-05
-1.9283e-05
0.000134337
0.000368678
0.000401417
-0.00213589
0.00796682
-0.0676428
-2.91365
1.57611
0.390029
-0.526408
-1.12363
-1.03781
-0.442222
0.226098
0.672205
0.694352
-0.0443884
-0.537229
-0.687034
-0.39244
0.3833
1.50245
2.35728
2.55735
2.09386
1.16116
0.0190436
-0.875649
-1.31527
-1.26855
-0.960975
-0.581997
-0.283071
-0.0765875
0.132247
0.32841
0.456835
0.461506
0.376065
0.143623
-0.166065
-2.84184e-13
-3.10574e-13
-2.6747e-13
1.9142e-12
-1.26893e-12
-3.29672e-12
4.54733e-14
4.50923e-12
-2.46526e-12
2.36111e-12
-1.77953e-12
4.2153e-12
-9.08178e-13
-3.14364e-12
4.66424e-13
-6.285e-13
7.10632e-12
8.47648e-12
-1.07358e-11
1.78623e-11
-8.96887e-11
-1.85861e-10
-1.76889e-09
-6.4085e-09
-2.44979e-08
-9.83771e-08
-3.44332e-07
-1.43e-06
-5.38588e-06
-1.71106e-05
-2.83717e-05
9.03424e-05
0.000333184
0.00116321
-0.00281887
0.00500503
-0.0130902
-6.02363
4.90295
3.45352
1.54873
0.0582655
-0.278516
-0.874201
-0.402036
0.0946375
0.321459
0.109179
-0.212399
-0.26949
-0.0156081
0.594445
1.5753
2.26037
2.37396
1.89954
0.978588
-0.0815304
-0.880847
-1.25536
-1.18124
-0.885838
-0.534249
-0.263072
-0.0467962
0.19308
0.419288
0.533916
0.475471
0.298373
-0.0328422
-0.378627
1.72904e-13
8.48632e-13
-1.41316e-12
1.29098e-12
-2.18995e-12
2.91143e-12
3.83306e-12
1.2503e-12
-1.58035e-12
-1.36941e-12
-3.2225e-12
-7.27932e-12
-4.75007e-12
1.00749e-11
-7.68297e-12
-1.91353e-12
-1.05458e-12
5.02306e-12
1.52092e-11
4.92197e-11
-8.70917e-11
-2.61471e-10
-1.46774e-09
-6.3288e-09
-2.09999e-08
-8.06266e-08
-3.39298e-07
-1.32327e-06
-4.93655e-06
-1.53353e-05
-2.87014e-05
8.08182e-05
0.00033812
0.00205675
-0.00408383
-0.00283415
0.00782192
-3.98613
5.65267
3.28901
1.70203
0.120686
-0.289653
-0.772574
-0.238229
0.14147
0.356466
0.40048
0.234483
0.157377
0.30285
0.754692
1.49085
2.0166
2.08701
1.65029
0.80103
-0.133632
-0.834782
-1.1456
-1.05939
-0.782081
-0.461366
-0.207432
0.00550105
0.243763
0.454939
0.532711
0.421116
0.192581
-0.178947
-0.512959
-8.54363e-14
2.52923e-12
2.48681e-13
-2.00421e-12
2.21833e-12
1.9977e-12
-3.21647e-12
-5.33425e-12
8.57823e-12
-2.40446e-12
8.55249e-13
-1.32559e-12
-4.58384e-13
1.14579e-12
-1.94438e-12
1.21709e-11
1.74438e-11
-1.79186e-11
-9.59557e-12
4.39512e-11
-1.89288e-10
-3.48985e-10
-1.19531e-09
-5.77857e-09
-2.17678e-08
-8.59879e-08
-3.36382e-07
-1.31805e-06
-4.56649e-06
-1.23648e-05
7.43625e-06
4.95654e-05
0.000359211
8.1342e-05
-0.000127263
-0.000670377
-0.0193972
-0.859302
6.24508
2.46797
0.761249
-0.212579
-0.483029
-0.594446
-0.0617445
0.305534
0.70904
0.993784
0.797983
0.551944
0.481795
0.766706
1.28189
1.66647
1.72897
1.36556
0.647574
-0.143341
-0.734283
-0.985815
-0.911421
-0.646863
-0.363708
-0.127766
0.0691375
0.271488
0.430137
0.455158
0.307197
0.0686249
-0.285932
-0.565075
5.59577e-13
-3.77917e-13
-1.28063e-12
-2.68911e-12
-6.2824e-12
-2.94388e-12
1.28854e-12
1.08322e-11
5.38423e-12
-6.30151e-12
-3.66673e-12
6.94818e-14
8.2527e-13
2.3105e-12
1.56514e-11
-5.28307e-12
-5.67016e-12
9.79918e-12
6.9044e-12
-3.98578e-11
-5.48271e-11
7.49592e-11
-1.14144e-09
-5.29817e-09
-2.23919e-08
-9.27481e-08
-3.55286e-07
-1.21074e-06
-3.22391e-06
-8.67226e-06
1.23812e-05
0.000172601
0.000336439
-0.000305547
-0.0073256
0.0128121
0.0140341
-2.26342
8.23658
2.94903
-0.521529
-1.92227
-2.3954
-1.04246
0.313115
1.26143
1.5849
1.70049
1.21406
0.747
0.521148
0.646263
0.988219
1.29723
1.39171
1.11508
0.528184
-0.109822
-0.595258
-0.792644
-0.726958
-0.500635
-0.253364
-0.0425013
0.122229
0.264411
0.349178
0.318417
0.155335
-0.0581575
-0.345427
-0.538743
-1.00997e-12
-2.05027e-12
1.47695e-12
-3.86646e-12
-1.30139e-12
-1.26919e-12
-1.08818e-12
3.06043e-12
-4.92748e-12
-1.98629e-12
4.46794e-12
8.68532e-12
4.41665e-13
-4.70025e-12
4.56583e-12
-1.09133e-11
1.93849e-12
-1.85406e-11
-1.7892e-11
3.81079e-11
2.33741e-11
-4.03882e-11
-7.64418e-10
-4.6568e-09
-2.22042e-08
-9.46404e-08
-3.93626e-07
-5.03276e-07
-3.64676e-06
-1.5695e-06
2.40731e-05
6.05235e-05
0.000546386
-0.000324552
-0.00511566
0.0563854
0.0199384
-0.690017
1.95813
-0.664734
-2.81925
-2.9324
-1.54153
0.232065
0.957535
1.49546
1.69231
1.91543
1.209
0.68328
0.371911
0.364506
0.608339
0.9542
1.08281
0.883914
0.440908
-0.0742715
-0.464172
-0.592778
-0.529422
-0.33469
-0.140537
0.0261923
0.144339
0.214678
0.223443
0.145752
-0.00908341
-0.167827
-0.358432
-0.452307
-1.09487e-13
-1.25871e-13
2.41279e-12
-1.90971e-14
-3.09758e-12
5.22589e-13
8.38434e-13
3.36551e-12
-4.67403e-13
3.48177e-12
-1.89393e-13
1.41305e-12
-6.9827e-13
-1.47255e-12
1.11159e-12
-7.78212e-12
5.32794e-12
-1.24476e-11
9.50754e-12
-4.44983e-11
-6.20497e-11
-5.77295e-11
-3.95334e-10
-3.33999e-09
-1.83836e-08
-7.81631e-08
-1.92016e-07
-5.01515e-07
-1.89803e-06
-8.41429e-07
1.48036e-05
6.98168e-05
0.000159628
-0.000592788
-0.00357452
0.0364801
-0.0565235
1.90139
-7.33428
-2.3665
-2.82517
-2.10402
-0.0424598
1.28871
1.85726
1.94098
1.93772
1.438
0.686667
0.267529
0.0401105
-0.0498467
0.277686
0.626812
0.863732
0.763266
0.413243
-0.0109291
-0.317064
-0.416135
-0.336208
-0.172395
-0.0388486
0.0685477
0.125923
0.127318
0.0708861
-0.0333312
-0.155799
-0.245251
-0.333106
-0.329407
8.4143e-13
-3.49959e-13
-1.77053e-12
-1.8942e-12
-3.40222e-12
-1.03534e-12
3.75464e-12
1.69241e-12
4.8507e-13
-5.83243e-12
2.15334e-12
4.40272e-12
3.19581e-12
5.6833e-12
-3.81821e-12
-8.727e-13
-3.75088e-12
-3.27485e-13
-1.07996e-11
1.87703e-11
8.02594e-11
-8.01057e-11
-2.82131e-10
-2.13275e-09
-1.11931e-08
-4.30279e-08
-7.79078e-08
-6.49716e-08
-9.74842e-07
1.32126e-06
1.42798e-05
-3.76528e-05
0.000378484
-0.000436892
-0.000938569
1.49991e-05
-0.0392028
2.23459
-7.29395
-0.664956
-0.543061
-1.02994
0.840404
1.77817
1.14536
0.733456
0.702693
0.114272
-0.245228
-0.361264
-0.0654917
0.069361
0.4878
0.897887
1.03017
0.85366
0.475405
0.0693169
-0.196334
-0.265834
-0.174485
-0.0374467
0.0412223
0.0868623
0.0800799
0.0192763
-0.0849194
-0.192627
-0.267793
-0.28297
-0.281464
-0.192969
2.69117e-13
-7.01829e-13
5.4266e-13
3.58775e-12
-7.4377e-13
-1.15761e-12
2.03138e-13
1.53472e-12
3.44779e-12
1.05064e-12
-7.82435e-13
-5.1644e-12
6.59795e-12
1.83526e-12
-6.16109e-12
7.07169e-13
-6.34837e-12
1.108e-11
-1.51356e-11
-3.61082e-11
7.00015e-11
-1.89028e-10
4.98132e-12
-1.64136e-09
-8.85721e-09
-2.81253e-08
-6.13653e-08
-4.9989e-08
-1.08812e-07
2.20084e-06
1.46139e-05
7.09255e-05
8.22143e-05
-0.000116051
-0.000425494
0.000138534
0.0156451
3.62999
-0.083818
2.70896
1.6428
1.2532
0.691195
-0.24699
-0.91995
-0.448276
-0.287343
-0.569685
-0.384385
-0.193369
-0.0370761
0.225182
0.494438
0.825375
0.955216
0.815945
0.490127
0.0832771
-0.14618
-0.17583
-0.0672816
0.042587
0.0910162
0.0838912
0.0252284
-0.0907368
-0.222388
-0.318464
-0.333483
-0.284173
-0.210032
-0.0594601
-2.42379e-13
3.78004e-14
-5.54148e-13
3.54574e-12
2.78782e-12
1.26855e-14
-1.72681e-12
-2.10632e-12
2.78222e-12
3.05927e-12
-2.06504e-12
1.06571e-13
4.47744e-12
7.29499e-12
-1.09303e-12
-1.84913e-12
9.79899e-12
-1.62789e-11
-7.15622e-12
1.39211e-11
1.00785e-11
-6.57465e-11
-1.26865e-10
-9.07203e-10
-5.95253e-09
-2.3761e-08
-4.89247e-08
-1.04324e-07
-2.9573e-07
-1.39454e-06
4.20312e-06
4.65275e-05
0.000100343
0.000157426
-0.00154677
-0.00448166
0.0452239
1.7467
1.41318
-0.743817
-0.307439
-0.202124
-0.801424
-1.61591
-2.28708
-1.8209
-1.4228
-0.675957
0.193379
0.733012
0.853832
0.903539
0.864965
0.9511
0.691537
0.448618
0.138157
-0.140546
-0.254851
-0.191277
-0.0463158
0.0407314
0.0917872
0.0462481
-0.0468118
-0.192327
-0.324591
-0.404414
-0.354199
-0.254525
-0.131997
0.0624034
9.21476e-14
-4.68747e-13
8.14455e-13
1.06432e-12
4.62764e-12
-5.92346e-12
-2.81202e-12
-3.947e-12
1.05026e-11
-9.96078e-12
8.25993e-12
2.62749e-12
-1.17261e-11
4.16716e-14
5.95946e-12
4.8446e-12
1.59989e-11
-2.0053e-11
-2.84018e-11
3.62385e-11
-6.1429e-11
1.69319e-10
-8.01125e-11
-1.02274e-09
-4.46432e-09
-1.75537e-08
-5.84504e-08
-1.76103e-07
-3.79933e-07
-2.14926e-06
-1.97455e-06
1.73867e-05
9.7814e-05
0.000478827
-0.000577119
-0.00599462
0.00222046
0.550326
2.62844
-1.98973
-1.17725
-0.517933
-1.53255
-1.6325
-2.18301
-1.41884
-0.584509
0.537639
0.813161
1.16237
1.05739
0.855252
0.555043
0.37683
0.20876
0.00420864
-0.232717
-0.403202
-0.406226
-0.262887
-0.0969163
0.00477387
0.0502325
-0.00396094
-0.118328
-0.275552
-0.404559
-0.448619
-0.341469
-0.204567
-0.0555096
0.172182
-7.92856e-13
-5.83834e-13
2.99208e-12
7.96385e-13
1.77821e-12
5.31783e-12
-7.9738e-12
-4.09141e-12
2.18974e-12
4.09254e-12
1.05209e-12
9.49476e-14
5.96267e-12
-1.57248e-11
7.84731e-12
3.88865e-12
-4.30961e-12
-8.54296e-14
4.66869e-12
-1.17582e-11
1.1428e-10
1.08574e-10
-3.69748e-10
-8.87232e-10
-2.90004e-09
-1.31339e-08
-4.95556e-08
-1.78828e-07
-6.60749e-07
-1.32574e-06
-4.37782e-06
6.85707e-06
0.00011002
0.000282731
0.000164482
-0.00299719
-0.00862712
0.0387554
2.16648
0.597426
-0.425015
-0.422764
-0.556
-0.522362
-0.500078
-0.287308
0.826868
1.30367
1.50205
1.47791
1.16513
0.80495
0.678135
0.289463
-0.0914503
-0.349598
-0.574264
-0.565444
-0.411734
-0.171272
-0.0113813
0.0554433
0.0313744
-0.0502931
-0.182118
-0.343211
-0.450698
-0.459155
-0.309931
-0.147381
0.0156352
0.271795
-8.91731e-13
6.16404e-13
-1.80921e-12
2.4611e-12
3.62136e-14
-2.04715e-12
2.79402e-12
1.58782e-13
4.03039e-12
3.46949e-12
-1.04017e-12
-2.47441e-12
9.24258e-13
-3.31906e-12
-1.71993e-12
2.8985e-12
6.93695e-12
1.85483e-12
-1.16746e-11
-1.74767e-11
4.17923e-11
-4.32569e-11
-1.89708e-10
-4.69577e-10
-2.38032e-09
-1.08158e-08
-4.28271e-08
-1.63959e-07
-5.97161e-07
-1.48508e-06
-4.24291e-06
3.54382e-06
8.78328e-05
0.000217023
0.000179813
-0.00233219
0.00194726
-0.0100472
0.746552
-0.855041
-0.550307
-0.234396
-0.113956
-0.108169
-0.329453
-0.349586
-0.317197
0.327637
0.856128
0.782522
0.622039
0.0874201
-0.467898
-0.520397
-0.86405
-1.07652
-0.906676
-0.679376
-0.297257
0.0576603
0.185128
0.171247
0.0511852
-0.0730701
-0.234948
-0.405641
-0.476576
-0.45095
-0.262536
-0.0862092
0.0762302
0.36332
-3.20143e-13
-3.39842e-12
-1.03563e-12
4.48408e-12
2.77783e-12
1.70776e-12
-1.71541e-12
-3.64891e-13
-2.49118e-12
-4.05375e-12
4.40812e-12
3.25787e-12
7.5831e-13
-6.54641e-12
7.89782e-12
-2.45077e-12
-4.99375e-12
-7.7419e-12
-4.81388e-12
2.62412e-12
1.37196e-11
1.08798e-11
5.57174e-11
-4.37789e-10
-1.74769e-09
-7.79284e-09
-3.1972e-08
-1.30299e-07
-4.69298e-07
-1.00947e-06
-2.40553e-06
6.40461e-06
0.000100429
0.00013771
-3.67607e-05
-0.002129
0.00291414
0.00370347
1.60975
-1.60711
-0.795033
-0.203057
0.0820928
0.226495
-0.366374
-0.284034
-0.209205
-0.137264
-0.0839612
-0.175023
-0.687206
-0.731048
-1.41929
-1.21834
-1.31614
-1.14648
-0.95999
-0.583249
-0.0388396
0.298642
0.449377
0.341257
0.107477
-0.0897341
-0.304016
-0.469806
-0.496721
-0.437266
-0.236107
-0.0213615
0.160331
0.438888
-6.63512e-13
6.71365e-14
-3.1609e-12
-1.08091e-12
8.13371e-13
-2.03825e-12
-2.18931e-12
-2.35483e-12
-3.35192e-13
1.67619e-12
3.29648e-12
-2.46731e-12
1.62799e-12
3.27177e-12
-2.45408e-12
-7.98e-12
1.1868e-11
-3.02594e-12
2.71621e-12
2.28262e-11
4.53043e-12
-2.58343e-11
-8.49192e-11
-9.92598e-11
-5.02283e-10
-3.41343e-09
-1.4932e-08
-5.83033e-08
-1.81032e-07
-2.19394e-07
3.83733e-07
7.74544e-06
5.08386e-05
6.1123e-05
-0.000111735
-0.000862044
0.00474114
0.00868498
1.45526
-0.168444
-0.577266
-0.437343
-0.382108
0.0467983
-0.148278
-0.29152
-0.0884603
-0.392109
-0.251595
0.127292
0.407426
-0.113423
-0.142601
-0.998139
-0.59111
-0.640743
-0.785596
-0.136143
0.20103
0.682864
0.750834
0.496378
0.104316
-0.135768
-0.386648
-0.531885
-0.547598
-0.434384
-0.19655
0.0603938
0.239793
0.536847
2.56889e-14
1.81088e-12
4.90266e-12
-3.71535e-12
-2.86168e-12
1.8102e-12
3.64276e-12
-2.10572e-12
1.16184e-11
-4.31161e-12
-4.15378e-13
-7.4752e-12
-5.27661e-12
4.14536e-12
8.02243e-12
1.58928e-12
3.66256e-12
-8.16506e-12
-4.95909e-12
1.51154e-11
-6.39065e-11
1.80568e-11
-9.70188e-12
1.89523e-10
5.21663e-10
2.3419e-09
9.92165e-09
5.19042e-08
2.8941e-07
7.58009e-07
2.69482e-06
6.17376e-06
-2.38399e-05
-9.74789e-06
-0.00017603
0.000434657
0.00314129
-0.00750272
2.08667
-0.447039
-0.550527
-0.702318
-0.574809
-0.0792865
-0.198311
-0.51107
-0.397273
-0.0190831
-0.134602
0.250048
0.502695
0.712188
0.646016
0.337131
0.496665
0.136742
-0.124792
0.110886
0.655145
0.940569
0.918504
0.613862
0.153358
-0.226981
-0.504579
-0.628031
-0.608511
-0.424008
-0.20366
0.0481264
0.280452
0.461941
-5.57074e-13
1.83463e-12
2.85388e-13
2.2435e-13
-4.7907e-13
-2.22623e-12
6.24805e-13
-2.73474e-12
3.52016e-12
6.74589e-12
-2.62451e-12
-3.93108e-12
9.16657e-12
-2.84064e-12
-5.85626e-12
-5.90699e-12
-3.45119e-13
2.6153e-12
-3.66619e-12
1.10499e-11
4.78534e-11
2.3843e-11
-1.09601e-10
3.30128e-10
1.61476e-09
6.00453e-09
2.63477e-08
1.14115e-07
4.9941e-07
1.50873e-06
4.17795e-06
4.46231e-06
-6.05548e-05
-6.10305e-05
-8.64528e-05
0.00189085
-0.00981647
-0.0060262
5.80757
-2.35235
-1.18524
-0.517884
-0.169407
-0.18086
-0.0607751
-0.230305
-0.289137
-0.12954
-0.0128489
0.0652333
0.513666
0.700092
0.275182
0.101894
0.658755
0.203329
0.0308388
0.0928764
0.537523
0.915796
0.884546
0.565808
0.0692967
-0.352772
-0.641291
-0.741534
-0.672989
-0.42437
-0.175031
0.118013
0.364524
0.50143
2.695e-13
3.88286e-12
-3.46498e-13
-7.03454e-13
9.75399e-13
3.70606e-12
3.07182e-12
1.29544e-12
-8.79139e-12
2.11575e-12
1.41445e-12
2.37545e-12
-2.87704e-12
-1.34125e-12
4.47719e-12
2.28054e-12
1.74402e-12
3.23603e-12
-1.22606e-11
8.48876e-12
2.42555e-11
7.05174e-11
8.92231e-12
3.5221e-10
1.8999e-09
7.60377e-09
3.03252e-08
1.37564e-07
5.39776e-07
1.80467e-06
5.09234e-06
7.5981e-06
-1.92427e-05
-0.000185527
-0.000325006
0.00165672
0.00488352
-0.0155085
1.19904
1.05518
0.807999
0.474097
0.182806
0.217314
0.212364
-0.30341
-0.562496
-0.917239
-0.28568
-0.565228
-0.0488949
0.669317
0.560236
0.149185
-0.220624
-0.498328
-0.615279
-0.542211
-0.0454813
0.370437
0.422184
0.161729
-0.20473
-0.568857
-0.798149
-0.856217
-0.725645
-0.400354
-0.11514
0.187639
0.499993
0.640804
1.31575e-12
4.28855e-12
-1.23773e-12
1.00758e-12
-1.89993e-12
-5.11968e-12
1.1929e-12
2.97381e-12
5.00648e-12
-6.5783e-12
-3.42298e-12
2.64894e-12
-4.92362e-13
-1.01257e-12
2.55944e-13
-7.6804e-12
8.64346e-13
2.5444e-12
7.97579e-13
-7.58049e-13
-1.02494e-12
5.90438e-11
3.53988e-11
5.38631e-10
1.67686e-09
6.64716e-09
2.8526e-08
1.22611e-07
4.51586e-07
1.62799e-06
4.8377e-06
9.38844e-06
-7.70774e-06
-0.000154457
-0.000415782
0.000188061
0.00475851
-0.00674826
0.0996331
1.22468
0.938471
0.638732
0.107747
0.198343
-0.176797
-0.5271
-0.91452
-0.68807
-0.0719727
0.324776
0.410584
0.419613
0.0661972
0.143655
-0.442776
-0.765492
-1.4107
-1.35086
-1.1229
-0.836977
-0.612015
-0.583671
-0.698962
-0.894367
-0.980498
-0.9407
-0.737654
-0.411632
-0.0660019
0.300545
0.592231
0.709258
-1.39919e-12
-9.4801e-14
8.40835e-13
2.01354e-12
-1.78241e-12
-2.05382e-12
-7.7063e-13
-7.67655e-13
-4.66441e-13
-5.03544e-12
-1.84391e-13
3.50408e-12
3.13348e-12
9.44955e-14
-6.35576e-12
-1.4983e-12
7.37108e-12
-3.87038e-12
3.20736e-12
5.13133e-12
-2.02591e-11
3.28715e-11
5.78841e-11
2.82338e-10
1.36437e-09
5.24276e-09
2.25656e-08
8.99497e-08
3.51463e-07
1.29172e-06
3.95665e-06
8.11311e-06
-8.64005e-07
-0.000111533
-0.00031835
-0.000204269
0.00387652
-0.000114578
-0.00736371
0.535463
1.46912
0.889049
0.422985
0.500414
-0.198266
-0.361932
-0.979515
-0.962383
-0.832973
-0.673138
-0.174014
0.470905
0.491724
0.0163933
-0.374778
-0.314552
-1.27138
-1.24585
-1.8925
-1.86637
-1.69848
-1.63852
-1.46793
-1.37227
-1.1972
-0.98442
-0.706287
-0.332187
-0.00243942
0.400921
0.63461
0.614946
-2.82732e-14
-5.45557e-13
2.89709e-12
-2.13451e-12
-1.64202e-12
6.8104e-12
-1.18541e-12
4.27557e-12
5.66568e-13
-4.14125e-12
-3.21368e-12
-3.35456e-12
5.04213e-12
3.89561e-12
-6.86782e-12
-6.9393e-14
-4.32811e-12
7.84885e-12
-2.44872e-12
-7.972e-12
9.71803e-13
-1.29617e-11
4.05543e-11
2.17387e-10
7.24684e-10
3.93063e-09
1.66826e-08
6.67506e-08
2.6e-07
9.54575e-07
3.01181e-06
5.65654e-06
-1.14963e-06
-6.40684e-05
-0.000165972
6.98499e-05
0.00168363
-0.0069725
0.0201892
0.276535
1.00248
0.812411
0.574613
0.434611
0.194651
0.0379789
-0.799945
-0.719564
-0.829031
-0.63677
-0.184028
0.106483
0.21759
0.286592
-0.387603
-0.170789
-0.595187
-0.238453
-1.24055
-1.73957
-2.10084
-2.2261
-2.06428
-1.69074
-1.29234
-0.885816
-0.546795
-0.203939
0.0826439
0.495693
0.698709
0.523441
9.25117e-13
1.83712e-12
-1.50247e-12
2.10038e-13
-8.53466e-13
-5.69436e-12
1.07219e-12
8.03446e-12
5.19641e-13
-4.704e-12
2.6805e-13
8.20749e-12
-1.2135e-12
-8.5466e-12
4.14461e-12
4.02718e-12
-3.16373e-12
-5.43348e-12
2.97426e-12
-1.41232e-12
3.07792e-11
-2.60299e-13
1.78115e-11
1.42765e-10
4.73633e-10
2.45992e-09
1.07636e-08
4.31111e-08
1.69168e-07
6.12992e-07
1.79942e-06
3.26164e-06
-4.20102e-07
-4.16776e-05
-0.000114874
0.000113391
0.00111193
-0.00621173
0.0122793
0.276304
1.2235
0.909376
0.867151
0.690133
0.290403
-0.00672843
-0.245643
-0.513275
-0.579963
-0.491466
-0.323964
0.0969763
0.416465
0.424678
0.140148
0.0900689
0.264699
0.551631
-0.229679
-0.740033
-1.45422
-2.09379
-2.22382
-1.91444
-1.37153
-0.452875
-0.473823
-0.0907974
0.220294
0.564825
0.740142
0.628161
3.70917e-13
4.11498e-13
-1.24466e-12
9.71724e-13
3.06528e-12
-7.21333e-12
2.58818e-12
-2.20846e-13
-1.16831e-12
8.00411e-12
-1.24297e-12
-5.99659e-12
-4.3083e-12
6.92549e-12
1.27141e-13
4.58662e-12
1.27433e-12
-5.80156e-12
-3.56527e-13
1.29707e-12
3.29235e-11
-2.22412e-11
1.60812e-12
1.06422e-10
3.11947e-10
1.36014e-09
5.39436e-09
2.31754e-08
9.32174e-08
3.2609e-07
8.62544e-07
1.75828e-06
7.87556e-07
-1.47029e-05
-5.73622e-05
9.45958e-05
0.000462259
-0.00264551
0.0030401
-0.119716
0.59996
0.79075
0.665703
0.692193
0.661665
0.547157
0.130172
0.315964
0.0551886
-0.170318
-0.128403
0.134901
0.630336
1.0397
0.807727
0.722693
1.17985
1.18822
1.02291
0.174941
-0.525278
-1.38081
-1.80341
-1.73172
-1.26843
-0.223351
-0.18729
0.090568
0.336557
0.617604
0.792124
0.718077
2.20331e-14
-1.73357e-13
-1.04434e-14
-2.05397e-12
3.39197e-12
-3.48871e-12
-3.70797e-12
-7.74891e-12
5.09981e-12
6.52795e-12
1.93588e-12
2.27242e-12
4.03969e-12
-1.29204e-11
-4.16579e-12
-6.02515e-12
8.83886e-12
1.69562e-12
-4.96102e-12
6.24836e-12
2.57633e-12
-4.0145e-12
4.4083e-11
3.31471e-11
2.28765e-10
2.04888e-10
1.79633e-09
8.20672e-09
3.29453e-08
1.11854e-07
2.65233e-07
1.9823e-07
1.09623e-07
-5.44044e-06
-1.95385e-05
4.79511e-05
0.0001105
-0.0016129
0.00354
-0.0421914
0.253742
-0.0236136
0.454704
0.641676
0.693594
0.637783
0.824035
0.435029
0.498735
0.125375
0.0669576
0.139113
0.688503
1.35921
1.55816
1.68161
1.64446
2.20051
1.70856
1.04622
0.443016
-0.934339
-1.12619
-1.22002
-0.843632
-0.0597281
0.149901
0.323931
0.508783
0.69232
0.794583
0.742752
4.33085e-13
1.94915e-12
2.39389e-12
-1.01184e-13
-2.38441e-12
1.09213e-12
4.42161e-12
5.28408e-13
-1.78087e-12
-3.77842e-12
-2.23311e-12
1.91284e-12
3.29285e-12
9.59629e-12
7.68705e-12
1.54032e-12
-1.16488e-11
-8.65205e-12
2.17802e-13
4.45845e-12
-7.48048e-12
-8.51978e-12
-3.27901e-11
1.47507e-10
3.35639e-11
-3.13097e-10
-7.48703e-10
-2.28409e-09
-6.6312e-09
-3.63868e-08
-2.09323e-07
-9.56449e-07
-1.87349e-06
3.07331e-07
4.66382e-05
6.34008e-05
-5.47572e-05
-0.00168498
0.00405826
0.00885037
0.171747
-0.0996189
0.173411
0.45137
0.611969
0.647527
0.506741
0.260334
0.224443
0.084678
0.148775
-0.117521
0.74225
1.25908
1.92508
2.16904
2.25999
2.123
2.48231
1.43507
0.8227
-0.092239
-0.590239
-0.750002
-0.353113
0.260358
0.454101
0.581456
0.643582
0.709768
0.756504
0.718682
-8.32772e-13
1.5762e-12
-2.64578e-13
3.03647e-12
4.55267e-12
-2.90679e-12
-2.27411e-12
-1.95565e-12
-3.38702e-12
3.05609e-12
1.61474e-12
-5.04522e-12
-2.04741e-12
-1.70704e-12
1.30595e-12
-1.71228e-12
-2.30259e-12
-1.57166e-12
2.64775e-12
1.07364e-11
-9.08818e-12
-3.8781e-12
5.77412e-11
7.85254e-11
-3.6943e-10
-2.3585e-10
-1.33459e-09
-6.36606e-09
-2.35084e-08
-9.17502e-08
-3.86366e-07
-1.57169e-06
-2.81463e-06
-1.54544e-06
4.12532e-05
9.29144e-05
-2.84129e-05
-0.00156333
0.00316697
0.00427395
0.331591
-0.991496
-0.140675
-0.0257659
0.35893
0.384665
0.35947
0.294218
0.367178
0.288201
0.240326
0.0480717
0.697041
0.908177
1.76898
2.08825
2.20127
2.22102
2.69762
1.10952
0.887793
0.354816
-0.239736
-0.321452
0.0565995
0.525495
0.724474
0.796396
0.77988
0.74155
0.708757
0.663547
-6.27427e-13
-2.84948e-12
5.61046e-12
-2.63133e-12
-3.12527e-12
-5.88967e-12
-3.21258e-12
5.33778e-13
2.87337e-12
2.92967e-12
3.88989e-12
-2.585e-12
-1.25421e-12
-2.11622e-14
1.02882e-12
3.99314e-13
-2.84568e-12
-1.35636e-12
1.6007e-12
-4.55928e-12
4.99322e-12
1.6673e-11
5.70828e-11
-1.40769e-10
-4.59046e-11
-3.13702e-10
-1.84936e-09
-6.80323e-09
-2.56908e-08
-1.00297e-07
-3.94681e-07
-1.429e-06
-3.86644e-06
-4.79357e-06
1.6737e-05
0.000107933
0.000114856
-0.00116948
-0.000792519
0.00447235
0.771814
0.137024
-0.173133
-0.0101401
0.329544
0.0912863
0.136875
0.218268
0.332102
0.352496
0.353315
0.317941
0.625959
0.683497
1.52023
1.79366
1.87501
1.81104
1.59717
1.50098
0.805183
0.382772
0.285743
0.389429
0.367421
0.575498
0.779153
0.91634
0.86521
0.750589
0.641975
0.566824
-5.22992e-14
-1.11766e-12
-1.70252e-12
2.74271e-12
3.16596e-12
-1.84369e-12
-3.89881e-12
-1.14636e-13
4.08989e-12
3.34752e-13
-6.38085e-12
-2.70024e-12
1.27484e-13
-4.27039e-13
-5.18931e-13
4.24311e-12
7.64789e-12
-2.85229e-12
-8.17896e-13
-5.70285e-14
-1.24936e-12
2.76378e-11
2.66245e-11
-3.68275e-11
-1.18249e-10
-1.5623e-10
-1.20492e-09
-6.25512e-09
-2.25997e-08
-8.55176e-08
-3.29952e-07
-1.2292e-06
-3.8232e-06
-6.73189e-06
3.7747e-06
9.95975e-05
0.000203958
-0.000336596
-0.002729
0.00398785
0.160168
0.777553
-0.100768
0.104021
-0.0522221
-0.041359
-0.121869
-0.0631548
0.0909321
0.259739
0.38924
0.418828
0.431608
0.682984
1.14987
1.3959
1.50407
1.34399
1.04526
1.13649
0.459302
0.207326
0.24342
0.0842728
0.36078
0.751614
0.998214
1.00411
0.933451
0.780465
0.609329
0.493587
-3.04217e-13
2.47332e-13
-3.39127e-12
7.44415e-14
5.03358e-13
8.33876e-13
2.85509e-12
9.78096e-13
-1.35416e-12
6.47527e-12
-8.38904e-12
1.33315e-12
8.62402e-12
-1.87967e-12
-4.9138e-12
-6.46064e-12
-1.5019e-12
4.78817e-14
5.8298e-13
4.10079e-12
5.67913e-12
-1.05204e-11
2.08378e-11
5.19527e-11
-6.04765e-11
-3.20287e-10
-1.30363e-09
-5.15026e-09
-1.8376e-08
-6.99308e-08
-2.70465e-07
-1.01837e-06
-3.36878e-06
-7.10411e-06
-4.1921e-06
6.5615e-05
0.000184318
3.79064e-05
-0.0022017
0.00262071
0.0159821
0.565881
0.339427
0.0707908
-0.00852397
0.0875426
-0.0338569
-0.239497
-0.250887
0.0323074
0.282574
0.443864
0.575253
0.402253
0.8372
1.04438
1.03641
1.02628
0.671623
0.427884
0.464392
-0.184583
-0.338128
-0.120934
0.12816
0.49694
0.764654
0.9036
0.898154
0.74642
0.599044
0.43051
-1.04671e-12
-7.87084e-14
-1.0428e-12
2.11754e-12
4.49387e-12
4.65489e-12
-2.55701e-12
-3.24892e-12
-2.12038e-13
3.29593e-12
1.50787e-12
-4.73102e-14
4.995e-12
-7.70438e-15
-2.70156e-12
-9.76036e-13
1.91779e-12
1.48352e-12
5.91019e-12
-9.74431e-12
-2.22801e-11
2.85844e-11
1.0857e-10
-2.54492e-11
-2.64355e-10
-2.83697e-10
-6.56167e-10
-3.52413e-09
-1.4887e-08
-5.67151e-08
-2.19013e-07
-8.31556e-07
-2.96225e-06
-7.12735e-06
-9.35113e-06
2.81191e-05
0.000186599
0.000243701
-0.00142856
0.000880845
0.000992368
0.375274
-0.274845
-0.26158
-0.0476107
0.478965
-0.0697499
-0.23426
-0.415765
-0.314968
-0.0463229
0.231383
0.366274
0.476195
0.363463
0.677378
0.75833
0.680508
0.403305
0.150015
-0.00923446
-0.421454
-0.483884
-0.281642
-0.0148347
0.274278
0.533105
0.708598
0.756255
0.700856
0.563301
0.364963
2.6876e-12
-3.16044e-13
-1.14211e-12
1.456e-12
-3.02373e-12
2.96985e-13
3.29274e-12
3.38687e-12
-1.48207e-12
-1.67623e-12
-1.89468e-12
7.30806e-12
-5.41175e-12
-3.98052e-12
1.00397e-11
7.76729e-13
4.49728e-12
4.95635e-12
4.25472e-12
-1.30551e-13
-1.28433e-11
-3.32637e-11
7.22545e-12
1.08835e-10
2.3464e-12
-1.00887e-10
-6.65099e-10
-3.32946e-09
-1.18014e-08
-4.62255e-08
-1.81206e-07
-7.00083e-07
-2.55022e-06
-6.73969e-06
-1.14271e-05
1.82944e-05
0.000200106
0.000421611
-0.00108343
-0.00354956
0.0151731
0.719188
1.84722
0.0925699
-0.256872
0.519109
0.302921
-0.18147
-0.609706
-0.697366
-0.487164
-0.148067
0.0850758
0.16117
0.243915
0.196221
0.407751
0.435309
0.268894
0.00821974
-0.211174
-0.526651
-0.576486
-0.457048
-0.197664
0.0374118
0.28791
0.463194
0.5286
0.526957
0.400479
0.250573
-2.06158e-12
-5.23325e-13
5.83114e-13
5.01285e-12
3.5239e-12
-3.28581e-12
-2.56131e-12
-4.89184e-12
3.78307e-13
5.9096e-12
-1.09906e-12
1.99623e-12
-1.1009e-12
-8.60974e-12
-1.58204e-14
4.61113e-12
4.37725e-12
5.8491e-14
1.50256e-12
2.98489e-12
2.5266e-11
1.42792e-11
4.79191e-11
-5.61725e-11
3.52031e-11
1.04392e-10
-4.74508e-10
-2.61067e-09
-9.39975e-09
-3.79711e-08
-1.51202e-07
-5.93171e-07
-2.19983e-06
-6.17475e-06
-1.24129e-05
8.81322e-06
0.000205602
0.00049464
-0.000335129
-0.00640287
0.0129289
0.190924
2.1178
-0.938452
-0.553746
0.672555
0.476446
0.180108
-0.397978
-0.61015
-0.631393
-0.504203
-0.383419
-0.295941
-0.207023
-0.0130035
-0.0790973
0.113628
0.119238
-0.0343322
-0.240434
-0.52509
-0.652953
-0.619999
-0.466545
-0.220046
0.0195911
0.186925
0.273876
0.323081
0.201953
0.144271
-1.53668e-13
3.48114e-12
-3.90388e-12
8.30337e-13
-1.55772e-12
9.37321e-13
-2.59042e-12
1.00214e-12
1.02215e-11
-2.77149e-12
-9.90189e-12
-1.37212e-12
5.76686e-13
4.36563e-12
2.7618e-12
3.54333e-12
4.29591e-12
-6.10788e-12
-2.33568e-12
2.37084e-12
6.83827e-12
-1.22759e-11
2.7967e-11
-2.25271e-11
1.68298e-11
-1.19696e-10