/*--------------------------------*- C++ -*----------------------------------*\
  =========                 |
  \\      /  F ield         | OpenFOAM: The Open Source CFD Toolbox
   \\    /   O peration     | Website:  https://openfoam.org
    \\  /    A nd           | Version:  13
     \\/     M anipulation  |
\*---------------------------------------------------------------------------*/
FoamFile
{
    format      ascii;
    class       volScalarField;
    location    "4";
    object      p;
}
// * * * * * * * * * * * * * * * * * * * * * * * * * * * * * * * * * * * * * //

dimensions      [1 -1 -2 0 0 0 0];

internalField   nonuniform List<scalar> 
36576
(
1
1
1
1
1
1
1
1
1
1
1
1
1
1
1
1
1
1
1
1
1
1
1
1
1
1
1
1
1
1
1
0.999999
0.999999
1.00001
1.00004
0.999707
1.00029
10.211
10.5449
10.5459
10.6119
10.6785
10.7485
10.8194
10.8902
10.958
11.0262
11.0908
11.1519
11.2151
11.2761
11.3363
11.3979
11.4577
11.5183
11.5746
11.6275
11.6771
11.7224
11.7649
11.8055
11.8449
11.8828
11.9184
11.9503
11.9783
12.0022
12.0219
12.0392
12.0483
12.0768
11.9701
1
1
1
1
1
1
1
1
1
1
1
1
1
1
1
1
1
1
1
1
1
1
1
1
1
1
1
1
1
1
1
0.999999
0.999998
1
1.00005
0.999844
0.999819
10.1803
10.5097
10.5343
10.6027
10.6761
10.747
10.8173
10.8888
10.9563
11.0228
11.0868
11.1489
11.2101
11.2718
11.3322
11.3932
11.4538
11.5135
11.5698
11.6226
11.6717
11.7167
11.7593
11.8
11.8394
11.8773
11.9127
11.9447
11.9727
11.9967
12.0164
12.0335
12.0425
12.0709
11.9639
1
1
1
1
1
1
1
1
1
1
1
1
1
1
1
1
1
1
1
1
1
1
1
1
1
1
1
1
1
1
1
1
0.999999
0.999997
1.00001
1.00009
0.999544
10.1223
10.4666
10.514
10.585
10.6608
10.7378
10.8123
10.8864
10.9559
11.0217
11.0847
11.1456
11.2046
11.2651
11.3254
11.3862
11.4476
11.507
11.5632
11.6158
11.6643
11.7092
11.7518
11.7924
11.8319
11.8697
11.905
11.9369
11.965
11.9892
12.0088
12.0259
12.0347
12.0629
11.9555
1
1
1
1
1
1
1
1
1
1
1
1
1
1
1
1
1
1
1
1
1
1
1
1
1
1
1
1
1
1
1
1
1
0.999995
0.999985
1.00022
0.999308
9.94788
10.4446
10.4986
10.5714
10.6465
10.7259
10.8021
10.8765
10.9485
11.0137
11.077
11.1381
11.1965
11.2558
11.3159
11.3762
11.4373
11.4959
11.5519
11.6042
11.6523
11.697
11.7395
11.7802
11.8195
11.8572
11.8923
11.9242
11.9524
11.9767
11.9964
12.0133
12.0218
12.0499
11.9419
1
1
1
1
1
1
1
1
1
1
1
1
1
1
1
1
1
1
1
1
1
1
1
1
1
1
1
1
1
1
1
1
1
0.999997
0.999979
1.00015
0.999788
9.68494
10.4531
10.4898
10.5603
10.6359
10.7133
10.7906
10.8642
10.936
11.0028
11.066
11.1277
11.1863
11.2445
11.3036
11.3634
11.4232
11.4812
11.5368
11.5886
11.6364
11.6811
11.7235
11.7642
11.8034
11.8407
11.8756
11.9074
11.9357
11.9601
11.9798
11.9965
12.0048
12.0328
11.924
1
1
1
1
1
1
1
1
1
1
1
1
1
1
1
1
1
1
1
1
1
1
1
1
1
1
1
1
1
1
1
1
1
1
0.99998
1.00007
0.999971
9.33508
10.4733
10.4858
10.5478
10.6233
10.6993
10.7754
10.8491
10.9205
10.9881
11.052
11.1137
11.1727
11.2303
11.2882
11.3473
11.4056
11.4628
11.5179
11.5692
11.6168
11.6613
11.7035
11.7441
11.783
11.8199
11.8544
11.886
11.9143
11.9388
11.9584
11.9751
11.9831
12.0112
11.9014
1
1
1
1
1
1
1
1
1
1
1
1
1
1
1
1
1
1
1
1
1
1
1
1
1
1
1
1
1
1
1
1
1
1
0.999977
1.00006
0.999978
8.9304
10.4773
10.4787
10.5344
10.6079
10.6842
10.7583
10.8319
10.9028
10.9706
11.0353
11.0969
11.1559
11.2131
11.2699
11.3276
11.3847
11.441
11.4953
11.5461
11.5933
11.6376
11.6797
11.7199
11.7583
11.7947
11.8287
11.8601
11.8882
11.9126
11.9322
11.9488
11.9567
11.9849
11.874
1
1
1
1
1
1
1
1
1
1
1
1
1
1
1
1
1
1
1
1
1
1
1
1
1
1
1
1
1
1
1
1
1
0.999999
0.999978
1.00011
0.999774
8.47763
10.4639
10.4645
10.5163
10.5898
10.667
10.7414
10.8145
10.8842
10.9516
11.0165
11.0776
11.1361
11.1925
11.2484
11.3045
11.3604
11.4157
11.4691
11.5193
11.5662
11.6101
11.6518
11.6915
11.7293
11.765
11.7984
11.8292
11.8571
11.8813
11.9009
11.9175
11.9254
11.9539
11.8416
1
1
1
1
1
1
1
1
1
1
1
1
1
1
1
1
1
1
1
1
1
1
1
1
1
1
1
1
1
1
1
1
1
0.999997
0.999988
1.00012
0.999613
7.97092
10.4417
10.4477
10.4973
10.5722
10.6488
10.723
10.7953
10.8644
10.9314
10.9958
11.0558
11.1131
11.1686
11.2233
11.2781
11.3328
11.387
11.4394
11.4889
11.5353
11.5788
11.6198
11.6588
11.6958
11.7306
11.7632
11.7934
11.8208
11.8447
11.8641
11.8807
11.8887
11.9176
11.8037
1
1
1
1
1
1
1
1
1
1
1
1
1
1
1
1
1
1
1
1
1
1
1
1
1
1
1
1
1
1
1
1
0.999999
0.999997
1
1.00009
0.999479
7.40549
10.4106
10.4226
10.4726
10.5502
10.6274
10.7041
10.7767
10.8455
10.9109
10.973
11.0309
11.0868
11.1411
11.1947
11.2483
11.3018
11.3548
11.406
11.4547
11.5004
11.5431
11.5834
11.6215
11.6575
11.6912
11.7228
11.7522
11.7789
11.8023
11.8216
11.8381
11.8462
11.8757
11.7598
1
1
1
1
1
1
1
1
1
1
1
1
1
1
1
1
1
1
1
1
1
1
1
1
1
1
1
1
1
1
1
0.999999
0.999998
1
1.00004
1.00004
0.999444
6.7357
10.3728
10.3904
10.4512
10.5333
10.6124
10.6876
10.7577
10.8246
10.8886
10.9485
11.0045
11.0588
11.1117
11.164
11.2163
11.2686
11.32
11.3698
11.4171
11.4616
11.5034
11.5426
11.5795
11.6142
11.6466
11.677
11.7053
11.7311
11.7539
11.7728
11.7893
11.7975
11.8276
11.7092
1
1
1
1
1
1
1
1
1
1
1
1
1
1
1
1
1
1
1
1
1
1
1
1
1
1
1
1
1
1
1
0.999999
0.999998
1
1.00004
0.999882
0.999421
6.07692
10.3456
10.3523
10.4347
10.5153
10.5915
10.6625
10.73
10.7945
10.8561
10.9143
10.9704
11.0245
11.0769
11.1285
11.1803
11.2315
11.2816
11.3297
11.3755
11.4186
11.4591
11.497
11.5325
11.5656
11.5965
11.6254
11.6523
11.677
11.6989
11.7174
11.7336
11.7418
11.7725
11.651
1
1
1
1
1
1
1
1
1
1
1
1
1
1
1
1
1
1
1
1
1
1
1
1
1
1
1
1
1
1
1
1
0.999998
1
1.00003
0.999918
1.00002
4.98066
10.4277
10.3313
10.4445
10.5261
10.5935
10.657
10.719
10.7779
10.8347
10.8888
10.942
10.9946
11.0463
11.097
11.1468
11.1953
11.242
11.2871
11.3303
11.3713
11.4101
11.4463
11.4801
11.5114
11.5404
11.5675
11.5928
11.616
11.6368
11.6545
11.6702
11.6783
11.7094
11.5843
1
1
1
1
1
1
1
1
1
1
1
1
1
1
1
1
1
1
1
1
1
1
1
1
1
1
1
1
1
1
1
1
0.999999
0.999999
1.00001
0.999986
1.00002
4.40957
10.3469
10.2436
10.3168
10.4163
10.4964
10.5748
10.6497
10.7198
10.7842
10.844
10.9019
10.9562
11.007
11.0566
11.1054
11.1529
11.1981
11.2409
11.2815
11.3199
11.3564
11.3905
11.4221
11.4511
11.4779
11.5028
11.526
11.5474
11.5666
11.5832
11.598
11.6059
11.6372
11.5077
1
1
1
1
1
1
1
1
1
1
1
1
1
1
1
1
1
1
1
1
1
1
1
1
1
1
1
1
1
1
1
1
0.999999
0.999998
1
1.00001
0.999939
1.76941
11.6165
10.4832
10.4546
10.5297
10.5546
10.5956
10.646
10.7043
10.76
10.8154
10.8676
10.917
10.9655
11.0139
11.0606
11.1053
11.1482
11.1892
11.2278
11.2641
11.2982
11.3297
11.3586
11.3848
11.4088
11.4308
11.4513
11.4703
11.4874
11.5024
11.5157
11.523
11.5541
11.4194
1
1
1
1
1
1
1
1
1
1
1
1
1
1
1
1
1
1
1
1
1
1
1
1
1
1
1
1
1
1
1
1
1
0.999999
1
1.00001
0.999966
1.09447
10.8426
10.3925
10.3534
10.4863
10.5531
10.6159
10.6609
10.7038
10.7467
10.7919
10.836
10.8828
10.9276
10.9704
11.0128
11.0548
11.0953
11.1339
11.1701
11.2038
11.2351
11.2637
11.2893
11.3121
11.3325
11.351
11.368
11.3837
11.3979
11.4104
11.4214
11.4279
11.4578
11.3176
1
1
1
1
1
1
1
1
1
1
1
1
1
1
1
1
1
1
1
1
1
1
1
1
1
1
1
1
1
1
1
1
1
0.999999
0.999999
1.00001
0.999996
1.00254
10.1555
10.216
10.2734
10.3918
10.442
10.5087
10.5915
10.6677
10.7278
10.7756
10.8157
10.8521
10.8872
10.9252
10.9641
11.0023
11.0395
11.0749
11.1079
11.1384
11.1665
11.1916
11.2134
11.2323
11.2484
11.2625
11.2751
11.2864
11.2965
11.3054
11.3129
11.3178
11.345
11.1998
1
1
1
1
1
1
1
1
1
1
1
1
1
1
1
1
1
1
1
1
1
1
1
1
1
1
1
1
1
1
1
1
1
0.999999
0.999999
1.00001
1
0.999985
9.36024
10.1109
10.1971
10.2855
10.3768
10.4674
10.5312
10.5883
10.6564
10.7273
10.7792
10.8193
10.8541
10.8855
10.9176
10.9506
10.9831
11.0144
11.0434
11.0692
11.0924
11.1129
11.1301
11.1442
11.1553
11.1641
11.1711
11.1767
11.1811
11.1848
11.1869
11.1889
11.2104
11.0632
1
1
1
1
1
1
1
1
1
1
1
1
1
1
1
1
1
1
1
1
1
1
1
1
1
1
1
1
1
1
1
1
1
0.999999
0.999999
1.00001
0.999998
0.999989
8.18827
10.0705
10.1652
10.2355
10.3194
10.3884
10.4618
10.5373
10.5957
10.6494
10.7082
10.7619
10.8062
10.8404
10.8729
10.9031
10.9294
10.9555
10.9784
10.9977
11.0143
11.0282
11.0395
11.0476
11.0526
11.0549
11.0548
11.0528
11.0495
11.0454
11.0396
11.0362
11.0472
10.907
1
1
1
1
1
1
1
1
1
1
1
1
1
1
1
1
1
1
1
1
1
1
1
1
1
1
1
1
1
1
1
1
1
0.999999
0.999999
1.00001
1.00001
0.999922
6.72576
10.0887
10.1569
10.2277
10.2907
10.3601
10.4182
10.4733
10.5387
10.6011
10.6418
10.6852
10.7333
10.7789
10.8179
10.8493
10.8744
10.8944
10.9111
10.9232
10.932
10.9384
10.9421
10.9427
10.9397
10.934
10.9248
10.9127
10.8984
10.8823
10.8654
10.8531
10.8476
10.7059
1
1
1
1
1
1
1
1
1
1
1
1
1
1
1
1
1
1
1
1
1
1
1
1
1
1
1
1
1
1
1
1
1
0.999999
1
1.00002
0.999988
0.999832
5.48255
10.0189
10.0794
10.1668
10.2501
10.3074
10.3521
10.4075
10.4619
10.5158
10.5713
10.6275
10.6602
10.6987
10.7418
10.7789
10.8091
10.827
10.8382
10.8439
10.8451
10.8429
10.838
10.8298
10.8175
10.8011
10.7803
10.7552
10.7267
10.6914
10.6
10.6929
10.6651
10.6339
1
1
1
1
1
1
1
1
1
1
1
1
1
1
1
1
1
1
1
1
1
1
1
1
1
1
1
1
1
1
1
1
1
0.999999
1
1.00001
0.999958
1.00003
2.51125
11.3619
10.2551
10.2209
10.2983
10.3323
10.3775
10.4057
10.4305
10.4582
10.5033
10.5451
10.5889
10.6272
10.6578
10.6939
10.7263
10.7477
10.7579
10.7579
10.7518
10.7418
10.7275
10.7092
10.6857
10.6565
10.6207
10.5774
10.5265
10.4614
10.3379
10.4223
10.3648
10.3262
1
1
1
1
1
1
1
1
1
1
1
1
1
1
1
1
1
1
1
1
1
1
1
1
1
1
1
1
1
1
1
1
1
0.999999
0.999999
1.00001
1.00001
0.999937
1.18524
10.5575
10.1621
10.1482
10.3005
10.3401
10.3539
10.3777
10.4155
10.4514
10.468
10.4908
10.5156
10.5488
10.5787
10.6089
10.6343
10.6542
10.6664
10.6639
10.6524
10.6346
10.6106
10.5813
10.545
10.5005
10.4459
10.3792
10.2989
10.1922
10.0194
10.0856
9.89202
9.78337
1
1
1
1
1
1
1
1
1
1
1
1
1
1
1
1
1
1
1
1
1
1
1
1
1
1
1
1
1
1
1
1
1
1
0.999999
1
1.00001
0.999997
1.00684
9.55972
9.99225
10.0492
10.1463
10.206
10.2935
10.3536
10.38
10.3944
10.4211
10.4488
10.4689
10.4838
10.4989
10.5216
10.5412
10.5552
10.5623
10.5594
10.545
10.521
10.4874
10.4462
10.3959
10.3339
10.2573
10.162
10.0441
9.88254
9.64117
9.64547
9.25525
8.92775
1
1
1
1
1
1
1
1
1
1
1
1
1
1
1
1
1
1
1
1
1
1
1
1
1
1
1
1
1
1
1
1
1
1
0.999999
0.999999
1.00001
0.999995
1.00003
8.28763
9.77513
9.90284
10.0298
10.1457
10.1846
10.2516
10.3164
10.3597
10.3784
10.3872
10.3981
10.4141
10.4295
10.4411
10.4499
10.456
10.453
10.4464
10.4272
10.3987
10.3576
10.3045
10.2387
10.1573
10.0559
9.92824
9.76556
9.54195
9.21553
9.08904
8.28297
6.5352
1
1
1
1
1
1
1
1
1
1
1
1
1
1
1
1
1
1
1
1
1
1
1
1
1
1
1
1
1
1
1
1
1
1
1
0.999999
1
1
0.999992
6.65864
9.64928
9.88739
9.98561
10.058
10.1243
10.2145
10.229
10.2708
10.3127
10.343
10.351
10.3523
10.3555
10.3576
10.3587
10.3582
10.3431
10.3296
10.3023
10.2674
10.2193
10.1555
10.0742
9.97271
9.8447
9.68415
9.47328
9.17969
8.77612
8.47048
7.23036
4.9571
1
1
1
1
1
1
1
1
1
1
1
1
1
1
1
1
1
1
1
1
1
1
1
1
1
1
1
1
1
1
1
1
1
1
1
0.999999
1
1.00001
0.999967
5.17724
9.62332
9.83242
9.8953
9.97658
10.0272
10.0908
10.1578
10.2116
10.2193
10.2543
10.2775
10.2899
10.286
10.2788
10.2678
10.2575
10.2379
10.2151
10.1735
10.129
10.0731
9.99907
9.90325
9.7812
9.62336
9.4338
9.18482
8.82826
8.36285
7.9065
6.81185
5.02528
1
1
1
1
1
1
1
1
1
1
1
1
1
1
1
1
1
1
1
1
1
1
1
1
1
1
1
1
1
1
1
1
1
1
1
0.999999
1
1.00001
0.999988
1.80035
10.3576
10.1066
10.0545
10.0354
10.0444
10.0649
10.0916
10.1178
10.1527
10.1693
10.1836
10.2017
10.2097
10.2012
10.1827
10.1575
10.1336
10.0969
10.0522
9.9927
9.92279
9.83622
9.72668
9.58468
9.39959
9.19977
8.90138
8.50099
7.99506
7.45616
6.40168
4.96928
1
1
1
1
1
1
1
1
1
1
1
1
1
1
1
1
1
1
1
1
1
1
1
1
1
1
1
1
1
1
1
1
1
1
1
0.999999
0.999999
1.00001
0.999994
1.11293
8.93421
10.0421
10.0102
10.0039
10.027
10.0537
10.0596
10.0763
10.0817
10.0965
10.1024
10.1046
10.1101
10.1085
10.0906
10.0627
10.0224
9.98409
9.92665
9.858
9.77994
9.67394
9.54853
9.39062
9.19137
8.96658
8.6392
8.21651
7.656
6.90739
5.94202
4.79479
1
1
1
1
1
1
1
1
1
1
1
1
1
1
1
1
1
1
1
1
1
1
1
1
1
1
1
1
1
1
1
1
1
1
1
0.999999
0.999999
1.00001
0.999996
1.00298
7.16427
9.90005
9.90206
9.91106
9.989
10.0253
10.0286
10.0262
10.0265
10.0296
10.0292
10.0205
10.0174
10.0094
9.99183
9.96266
9.91964
9.86126
9.80855
9.72749
9.63276
9.51873
9.37977
9.20666
8.99603
8.74171
8.4017
7.97412
7.42269
6.73063
5.89883
4.97172
1
1
1
1
1
1
1
1
1
1
1
1
1
1
1
1
1
1
1
1
1
1
1
1
1
1
1
1
1
1
1
1
1
1
1
0.999999
0.999999
1.00001
0.999995
0.999999
5.46988
9.82644
9.75124
9.80963
9.86033
9.88913
9.93158
9.95036
9.95698
9.95598
9.95043
9.94337
9.93047
9.91346
9.89005
9.85855
9.81352
9.75295
9.67885
9.60092
9.49415
9.36823
9.21866
9.0356
8.81094
8.53914
8.19451
7.76972
7.24779
6.62147
5.90382
5.12481
1
1
1
1
1
1
1
1
1
1
1
1
1
1
1
1
1
1
1
1
1
1
1
1
1
1
1
1
1
1
1
1
1
1
1
1
0.999999
1
1.00001
0.999972
1.97021
10.6319
9.98358
9.89643
9.85166
9.8382
9.86625
9.88224
9.8902
9.88731
9.87778
9.86295
9.8471
9.82492
9.79174
9.75294
9.70471
9.64145
9.56066
9.47087
9.36306
9.22474
9.06466
8.87529
8.64766
8.36521
8.02183
7.60466
7.11694
6.55125
5.92115
5.2548
1
1
1
1
1
1
1
1
1
1
1
1
1
1
1
1
1
1
1
1
1
1
1
1
1
1
1
1
1
1
1
1
1
1
1
1
0.999999
1
1.00001
0.999997
1.13326
9.30561
9.77215
9.74059
9.77499
9.79655
9.81553
9.82293
9.82246
9.8151
9.80395
9.78539
9.76304
9.73448
9.69833
9.65399
9.59647
9.52885
9.44554
9.33918
9.23883
9.09055
8.91727
8.71602
8.47347
8.19058
7.85515
7.465
7.01469
6.50312
5.94418
5.36531
1
1
1
1
1
1
1
1
1
1
1
1
1
1
1
1
1
1
1
1
1
1
1
1
1
1
1
1
1
1
1
1
1
1
1
1
0.999999
0.999999
1.00001
1
1.00378
7.33273
9.57008
9.65476
9.72205
9.74334
9.76201
9.77509
9.77227
9.75992
9.74023
9.71438
9.68193
9.64875
9.60615
9.55433
9.49477
9.42025
9.32964
9.22356
9.1103
8.95893
8.78387
8.57831
8.33891
8.05979
7.73576
7.36495
6.94374
6.47659
5.97167
5.46153
1
1
1
1
1
1
1
1
1
1
1
1
1
1
1
1
1
1
1
1
1
1
1
1
1
1
1
1
1
1
1
1
1
1
1
1
0.999999
0.999999
1.00001
0.999997
1
5.43716
9.51412
9.52796
9.58718
9.64826
9.68857
9.69001
9.68857
9.68268
9.66745
9.64203
9.60681
9.5621
9.51767
9.46092
9.39257
9.31415
9.22114
9.1104
8.98619
8.83293
8.65666
8.45093
8.21848
7.94756
7.63682
7.28389
6.88951
6.46006
6.00162
5.54588
1
1
1
1
1
1
1
1
1
1
1
1
1
1
1
1
1
1
1
1
1
1
1
1
1
1
1
1
1
1
1
1
1
1
1
1
0.999999
0.999998
1
1.00001
0.999914
1.87846
10.0332
9.72047
9.69075
9.664
9.64387
9.62779
9.61935
9.60625
9.58829
9.56318
9.52795
9.48236
9.42487
9.36967
9.29764
9.21132
9.11454
9.00097
8.86982
8.71502
8.53872
8.33886
8.10536
7.84459
7.5478
7.21454
6.84673
6.45111
6.03543
5.61652
1
1
1
1
1
1
1
1
1
1
1
1
1
1
1
1
1
1
1
1
1
1
1
1
1
1
1
1
1
1
1
1
1
1
1
1
1
0.999998
0.999999
1.00002
0.999971
1.12535
8.27781
9.56546
9.58135
9.58558
9.5865
9.57395
9.55867
9.53857
9.5149
9.48477
9.44725
9.40002
9.34245
9.27025
9.20612
9.11532
9.01129
8.89485
8.7613
8.60619
8.42961
8.23065
8.00507
7.75098
7.46813
7.15494
6.81315
6.44825
6.06915
5.67406
1
1
1
1
1
1
1
1
1
1
1
1
1
1
1
1
1
1
1
1
1
1
1
1
1
1
1
1
1
1
1
1
1
1
1
1
1
0.999998
0.999998
1.00002
1.00001
1.00338
6.18244
9.47735
9.47699
9.48351
9.50052
9.50064
9.48921
9.47029
9.44375
9.40861
9.3663
9.31561
9.25682
9.18684
9.10551
9.02101
8.91525
8.79354
8.6584
8.506
8.33059
8.13274
7.9129
7.66731
7.39739
7.10262
6.78483
6.44743
6.09477
5.72072
1
1
1
1
1
1
1
1
1
1
1
1
1
1
1
1
1
1
1
1
1
1
1
1
1
1
1
1
1
1
1
1
1
1
1
1
1
0.999999
0.999998
1.00002
1
0.999887
2.42948
10.2215
9.61952
9.50444
9.47607
9.45288
9.42822
9.40156
9.37183
9.33293
9.28729
9.23105
9.16958
9.09815
9.01503
8.92633
8.82205
8.6993
8.56066
8.40544
8.23226
8.04072
7.8279
7.59288
7.33549
7.05686
6.75913
6.44431
6.11559
5.76736
1
1
1
1
1
1
1
1
1
1
1
1
1
1
1
1
1
1
1
1
1
1
1
1
1
1
1
1
1
1
1
1
1
1
1
1
1
0.999999
0.999996
1
1.00005
0.999851
1.20083
8.81156
9.47717
9.43211
9.41783
9.4101
9.38372
9.34727
9.30316
9.2599
9.20804
9.14969
9.08696
9.00987
8.92757
8.83411
8.73079
8.60861
8.47113
8.31578
8.14726
7.95821
7.75085
7.52541
7.28069
7.01693
6.73633
6.44113
6.13163
5.80786
1
1
1
1
1
1
1
1
1
1
1
1
1
1
1
1
1
1
1
1
1
1
1
1
1
1
1
1
1
1
1
1
1
1
1
1
1
0.999999
0.999996
0.999997
1.00004
0.999997
1.00627
6.59
9.351
9.34371
9.33591
9.32246
9.30636
9.27633
9.23563
9.18501
9.13266
9.07266
9.00469
8.92819
8.84389
8.74889
8.6427
8.52163
8.38684
8.23739
8.06758
7.88634
7.68525
7.46711
7.23246
6.98191
6.71654
6.43719
6.14466
5.84549
1
1
1
1
1
1
1
1
1
1
1
1
1
1
1
1
1
1
1
1
1
1
1
1
1
1
1
1
1
1
1
1
1
1
1
1
1
1
0.999997
0.999998
1.00003
0.999848
1.00082
3.20297
9.98315
9.37067
9.27157
9.25278
9.23356
9.19782
9.15725
9.11095
9.05485
8.99715
8.92942
8.85091
8.76492
8.66878
8.56122
8.4407
8.30756
8.16112
7.99921
7.81832
7.62562
7.41541
7.18999
6.95068
6.69826
6.43377
6.15711
5.881
1
1
1
1
1
1
1
1
1
1
1
1
1
1
1
1
1
1
1
1
1
1
1
1
1
1
1
1
1
1
1
1
1
1
1
1
1
1
0.999998
0.999996
1.00001
1.00003
0.999844
1.31968
8.80792
9.28232
9.24862
9.21873
9.17651
9.13065
9.08748
9.0406
8.98612
8.92085
8.85879
8.7801
8.69154
8.59392
8.48592
8.36612
8.23423
8.08959
7.93175
7.75807
7.56933
7.36809
7.15215
6.92336
6.68256
6.43177
6.17043
5.91217
1
1
1
1
1
1
1
1
1
1
1
1
1
1
1
1
1
1
1
1
1
1
1
1
1
1
1
1
1
1
1
1
1
1
1
1
1
1
0.999999
0.999997
0.999999
1.00003
0.999997
1.01296
6.53916
9.23963
9.17449
9.1323
9.08972
9.05646
9.01935
8.97227
8.9177
8.85669
8.78789
8.71362
8.62454
8.52491
8.41615
8.29718
8.16674
8.02407
7.86898
7.7013
7.51869
7.32425
7.11751
6.89904
6.66947
6.4307
6.18467
5.93777
1
1
1
1
1
1
1
1
1
1
1
1
1
1
1
1
1
1
1
1
1
1
1
1
1
1
1
1
1
1
1
1
1
1
1
1
1
1
1
0.999998
0.999997
1.00002
0.99998
1.00013
2.77194
9.85224
9.23569
9.06541
9.02205
8.99069
8.95236
8.90365
8.84877
8.7899
8.72127
8.64927
8.56023
8.46057
8.3519
8.23313
8.10407
7.96377
7.81168
7.64801
7.47276
7.28361
7.08583
6.87652
6.65753
6.43029
6.19751
5.95852
1
1
1
1
1
1
1
1
1
1
1
1
1
1
1
1
1
1
1
1
1
1
1
1
1
1
1
1
1
1
1
1
1
1
1
1
1
1
1
0.999999
0.999997
1
1.00002
0.999892
1.25884
8.45991
9.0574
8.99684
8.97915
8.95069
8.89884
8.84372
8.78851
8.72914
8.66181
8.58645
8.49742
8.39928
8.29198
8.17408
8.04576
7.90745
7.75885
7.59927
7.42925
7.24899
7.05665
6.8558
6.64645
6.42923
6.20726
5.978
1
1
1
1
1
1
1
1
1
1
1
1
1
1
1
1
1
1
1
1
1
1
1
1
1
1
1
1
1
1
1
1
1
1
1
1
1
1
1
1
0.999998
0.999998
1.00002
0.999987
1.00926
6.04476
8.97444
8.89883
8.88186
8.85391
8.81164
8.77198
8.72877
8.67228
8.60388
8.52653
8.43823
8.34128
8.23508
8.11857
7.99189
7.85531
7.70935
7.55448
7.38982
7.21498
7.03035
6.83659
6.63517
6.42745
6.21547
5.99673
1
1
1
1
1
1
1
1
1
1
1
1
1
1
1
1
1
1
1
1
1
1
1
1
1
1
1
1
1
1
1
1
1
1
1
1
1
1
1
1
0.999999
0.999997
1.00001
1
0.999967
2.3205
9.26933
9.01229
8.87559
8.79151
8.74872
8.71248
8.67506
8.61641
8.54659
8.469
8.38183
8.28581
8.18051
8.06551
7.94101
7.80717
7.6641
7.51198
7.35116
7.18134
7.00351
6.81802
6.62529
6.42584
6.22398
6.01349
1
1
1
1
1
1
1
1
1
1
1
1
1
1
1
1
1
1
1
1
1
1
1
1
1
1
1
1
1
1
1
1
1
1
1
1
1
1
1
1
0.999999
0.999998
1
1.00002
0.999969
1.17054
7.54891
8.73898
8.70366
8.70897
8.70617
8.67496
8.62993
8.56633
8.49476
8.41649
8.32953
8.23382
8.1292
8.01564
7.89327
7.76214
7.62237
7.47397
7.31646
7.15282
6.98089
6.80183
6.61654
6.42494
6.23197
6.02846
1
1
1
1
1
1
1
1
1
1
1
1
1
1
1
1
1
1
1
1
1
1
1
1
1
1
1
1
1
1
1
1
1
1
1
1
1
1
1
1
1
0.999998
0.999998
1.00001
0.999976
1.00476
4.69017
8.66845
8.63403
8.66533
8.65641
8.61901
8.57289
8.51238
8.44429
8.36724
8.28051
8.18512
8.08143
7.96941
7.84906
7.72043
7.58364
7.43894
7.2868
7.12629
6.9607
6.78717
6.6082
6.42419
6.23859
6.04248
1
1
1
1
1
1
1
1
1
1
1
1
1
1
1
1
1
1
1
1
1
1
1
1
1
1
1
1
1
1
1
1
1
1
1
1
1
1
1
1
1
0.999999
0.999998
1
1.00002
0.999913
1.70342
7.97396
8.77683
8.72462
8.64191
8.58503
8.53131
8.47139
8.40255
8.32373
8.236
8.14055
8.03766
7.92706
7.80849
7.682
7.54787
7.40649
7.25834
7.10329
6.94063
6.77384
6.60075
6.4236
6.24478
6.05523
1
1
1
1
1
1
1
1
1
1
1
1
1
1
1
1
1
1
1
1
1
1
1
1
1
1
1
1
1
1
1
1
1
1
1
1
1
1
1
1
1
0.999999
0.999998
0.999999
1.00002
0.999983
1.04256
5.60055
8.67648
8.59484
8.55065
8.52247
8.4805
8.42723
8.3599
8.28097
8.19376
8.09925
7.99734
7.88785
7.77083
7.64636
7.51477
7.37654
7.23211
7.08187
6.92461
6.7607
6.59404
6.42405
6.25054
6.06654
1
1
1
1
1
1
1
1
1
1
1
1
1
1
1
1
1
1
1
1
1
1
1
1
1
1
1
1
1
1
1
1
1
1
1
1
1
1
1
1
1
1
0.999999
0.999998
1.00001
1.00001
1.0005
2.20018
8.50424
8.62836
8.53348
8.51118
8.45728
8.39898
8.32561
8.24338
8.15556
8.06125
7.95966
7.85085
7.73513
7.61278
7.48391
7.34877
7.20769
7.06054
6.90815
6.75027
6.58829
6.42447
6.255
6.07638
1
1
1
1
1
1
1
1
1
1
1
1
1
1
1
1
1
1
1
1
1
1
1
1
1
1
1
1
1
1
1
1
1
1
1
1
1
1
1
1
1
1
0.999999
0.999998
1
1.00002
0.999992
1.10738
6.27299
8.575
8.49783
8.46429
8.41622
8.35716
8.28465
8.20412
8.11787
8.02388
7.92241
7.8146
7.70071
7.58077
7.45483
7.32292
7.18511
7.04177
6.89326
6.7402
6.58473
6.4256
6.25863
6.08433
1
1
1
1
1
1
1
1
1
1
1
1
1
1
1
1
1
1
1
1
1
1
1
1
1
1
1
1
1
1
1
1
1
1
1
1
1
1
1
1
1
1
1
0.999999
0.999998
1.00001
1.00001
1.00213
2.65866
8.58221
8.53028
8.4482
8.39964
8.3297
8.25302
8.17254
8.08322
7.98744
7.88596
7.77949
7.6678
7.55045
7.42741
7.29878
7.16458
7.02484
6.87985
6.73095
6.5803
6.42434
6.26151
6.09318
1
1
1
1
1
1
1
1
1
1
1
1
1
1
1
1
1
1
1
1
1
1
1
1
1
1
1
1
1
1
1
1
1
1
1
1
1
1
1
1
1
1
1
0.999999
0.999998
1
1.00002
0.999965
1.194
6.65033
8.47539
8.40981
8.35679
8.28931
8.21358
8.13375
8.0457
7.94959
7.84983
7.7459
7.63704
7.52219
7.40201
7.27638
7.14518
7.00825
6.86716
6.7223
6.57358
6.42131
6.26303
6.10017
1
1
1
1
1
1
1
1
1
1
1
1
1
1
1
1
1
1
1
1
1
1
1
1
1
1
1
1
1
1
1
1
1
1
1
1
1
1
1
1
1
1
1
1
0.999999
0.999998
1.00001
1
1.00532
3.04951
8.6144
8.419
8.3406
8.26375
8.18095
8.09606
8.00785
7.91496
7.81866
7.7163
7.60879
7.49612
7.37876
7.25584
7.12689
6.99279
6.85426
6.71255
6.56626
6.41873
6.26476
6.10678
1
1
1
1
1
1
1
1
1
1
1
1
1
1
1
1
1
1
1
1
1
1
1
1
1
1
1
1
1
1
1
1
1
1
1
1
1
1
1
1
1
1
1
1
0.999999
0.999998
1
1.00002
0.999998
1.29777
6.94286
8.40104
8.30255
8.22566
8.14388
8.06124
7.97346
7.8833
7.78798
7.68841
7.58368
7.47419
7.35821
7.23622
7.10889
6.9768
6.84066
6.70158
6.55921
6.41646
6.26669
6.11396
1
1
1
1
1
1
1
1
1
1
1
1
1
1
1
1
1
1
1
1
1
1
1
1
1
1
1
1
1
1
1
1
1
1
1
1
1
1
1
1
1
1
1
1
1
0.999998
0.999998
1.00001
0.999997
1.01028
3.44777
8.58065
8.25646
8.17926
8.10295
8.02306
7.94149
7.85456
7.76184
7.66412
7.56122
7.45335
7.33726
7.21609
7.08995
6.9595
6.8261
6.69024
6.55309
6.41435
6.26945
6.12339
1
1
1
1
1
1
1
1
1
1
1
1
1
1
1
1
1
1
1
1
1
1
1
1
1
1
1
1
1
1
1
1
1
1
1
1
1
1
1
1
1
1
1
1
1
0.999999
0.999998
1
1.00002
1.00001
1.422
7.11235
8.2522
8.1501
8.07217
7.99369
7.91672
7.83127
7.74015
7.64391
7.54224
7.43302
7.31748
7.19442
7.06929
6.94116
6.81102
6.67949
6.54818
6.41347
6.27477
6.13467
1
1
1
1
1
1
1
1
1
1
1
1
1
1
1
1
1
1
1
1
1
1
1
1
1
1
1
1
1
1
1
1
1
1
1
1
1
1
1
1
1
1
1
1
1
1
0.999998
0.999999
1.00002
0.999973
1.01758
3.71111
8.39548
8.08907
8.03162
7.96524
7.89005
7.80771
7.71909
7.62553
7.52297
7.41132
7.2933
7.1715
7.04779
6.92256
6.7969
6.67126
6.54505
6.41574
6.28313
6.1489
1
1
1
1
1
1
1
1
1
1
1
1
1
1
1
1
1
1
1
1
1
1
1
1
1
1
1
1
1
1
1
1
1
1
1
1
1
1
1
1
1
1
1
1
1
1
0.999999
0.999997
1.00001
1.00001
1.00006
1.50207
6.99824
8.09593
8.0264
7.95014
7.87013
7.78737
7.70131
7.60683
7.49951
7.38564
7.26654
7.14665
7.02654
6.90647
6.78663
6.66661
6.54567
6.42246
6.29544
6.16521
1
1
1
1
1
1
1
1
1
1
1
1
1
1
1
1
1
1
1
1
1
1
1
1
1
1
1
1
1
1
1
1
1
1
1
1
1
1
1
1
1
1
1
1
1
1
0.999999
0.999998
0.999999
1.00002
0.999993
1.02268
3.61935
8.22628
7.97152
7.92191
7.84965
7.77176
7.68374
7.5815
7.46906
7.35549
7.23928
7.12392
7.0094
6.89534
6.78131
6.66682
6.55216
6.43306
6.30905
6.18123
1
1
1
1
1
1
1
1
1
1
1
1
1
1
1
1
1
1
1
1
1
1
1
1
1
1
1
1
1
1
1
1
1
1
1
1
1
1
1
1
1
1
1
1
1
1
1
0.999998
0.999997
1.00001
1.00002
1.00016
1.47398
6.7218
7.97073
7.90965
7.83834
7.76182
7.66425
7.55329
7.43843
7.32418
7.21587
7.10707
6.99897
6.89064
6.78216
6.6736
6.56154
6.44364
6.32008
6.19243
1
1
1
1
1
1
1
1
1
1
1
1
1
1
1
1
1
1
1
1
1
1
1
1
1
1
1
1
1
1
1
1
1
1
1
1
1
1
1
1
1
1
1
1
1
1
1
0.999999
0.999998
0.999999
1.00002
0.999994
1.02057
3.40859
8.00183
7.90624
7.83876
7.75415
7.62935
7.5121
7.40154
7.3004
7.19936
7.0973
6.99539
6.89265
6.78872
6.68147
6.56938
6.45095
6.32666
6.19836
1
1
1
1
1
1
1
1
1
1
1
1
1
1
1
1
1
1
1
1
1
1
1
1
1
1
1
1
1
1
1
1
1
1
1
1
1
1
1
1
1
1
1
1
1
1
1
1
0.999999
0.999997
1
1.00002
1.00013
1.36968
6.27897
7.90875
7.8245
7.68824
7.57218
7.47173
7.3797
7.28736
7.1909
7.09443
6.99734
6.8979
6.79483
6.6873
6.57373
6.45343
6.3283
6.19992
1
1
1
1
1
1
1
1
1
1
1
1
1
1
1
1
1
1
1
1
1
1
1
1
1
1
1
1
1
1
1
1
1
1
1
1
1
1
1
1
1
1
1
1
1
1
1
1
1
0.999998
0.999999
1.00002
1
1.01383
3.01714
7.85725
7.87001
7.56239
7.53057
7.45288
7.37118
7.28408
7.19077
7.09737
7.00171
6.9024
6.79841
6.68855
6.57222
6.45108
6.32627
6.2007
1
1
1
1
1
1
1
1
1
1
1
1
1
1
1
1
1
1
1
1
1
1
1
1
1
1
1
1
1
1
1
1
1
1
1
1
1
1
1
1
1
1
1
1
1
1
1
1
1
0.999999
0.999997
1
1.00002
1.00006
1.2541
5.80539
7.74302
7.53742
7.53194
7.4485
7.37227
7.28509
7.19346
7.10047
7.00455
6.90393
6.79685
6.68394
6.5676
6.448
6.32676
6.20725
1
1
1
1
1
1
1
1
1
1
1
1
1
1
1
1
1
1
1
1
1
1
1
1
1
1
1
1
1
1
1
1
1
1
1
1
1
1
1
1
1
1
1
1
1
1
1
1
1
1
0.999998
0.999998
1.00002
1.00002
1.0078
2.54742
7.28335
7.62141
7.62457
7.44437
7.38026
7.28392
7.19186
7.1005
7.00365
6.89957
6.79055
6.67864
6.56425
6.44829
6.33355
6.21953
1
1
1
1
1
1
1
1
1
1
1
1
1
1
1
1
1
1
1
1
1
1
1
1
1
1
1
1
1
1
1
1
1
1
1
1
1
1
1
1
1
1
1
1
1
1
1
1
1
1
0.999999
0.999997
1
1.00003
1
1.1429
5.03686
7.5804
7.53101
7.40436
7.35985
7.27574
7.18854
7.0968
6.99693
6.89167
6.78368
6.6739
6.56346
6.45425
6.34499
6.23509
1
1
1
1
1
1
1
1
1
1
1
1
1
1
1
1
1
1
1
1
1
1
1
1
1
1
1
1
1
1
1
1
1
1
1
1
1
1
1
1
1
1
1
1
1
1
1
1
1
1
1
0.999998
0.999998
1.00002
1.00002
1.00324
1.98743
6.58541
7.56863
7.43362
7.372
7.28081
7.18561
7.08713
6.98485
6.88087
6.77602
6.67132
6.56821
6.46466
6.35914
6.25124
1
1
1
1
1
1
1
1
1
1
1
1
1
1
1
1
1
1
1
1
1
1
1
1
1
1
1
1
1
1
1
1
1
1
1
1
1
1
1
1
1
1
1
1
1
1
1
1
1
1
1
0.999999
0.999997
1
1.00003
0.99999
1.0622
3.76571
7.56548
7.4393
7.36728
7.26857
7.17096
7.07303
6.97282
6.87224
6.77303
6.67622
6.57862
6.47778
6.37305
6.26505
1
1
1
1
1
1
1
1
1
1
1
1
1
1
1
1
1
1
1
1
1
1
1
1
1
1
1
1
1
1
1
1
1
1
1
1
1
1
1
1
1
1
1
1
1
1
1
1
1
1
1
1
0.999998
0.999997
1.00002
1.00003
1.0009
1.46817
5.84774
7.38917
7.31775
7.24841
7.15774
7.06218
6.96608
6.87198
6.78076
6.68825
6.59134
6.48949
6.38349
6.27484
1
1
1
1
1
1
1
1
1
1
1
1
1
1
1
1
1
1
1
1
1
1
1
1
1
1
1
1
1
1
1
1
1
1
1
1
1
1
1
1
1
1
1
1
1
1
1
1
1
1
1
1
0.999999
0.999997
1
1.00003
1
1.01938
2.79713
7.01425
7.34894
7.27051
7.15635
7.05957
6.97102
6.88503
6.79573
6.70106
6.60084
6.49639
6.38948
6.28194
1
1
1
1
1
1
1
1
1
1
1
1
1
1
1
1
1
1
1
1
1
1
1
1
1
1
1
1
1
1
1
1
1
1
1
1
1
1
1
1
1
1
1
1
1
1
1
1
1
1
1
1
1
0.999998
0.999997
1.00001
1.00003
1.00012
1.18566
4.76152
7.35722
7.22358
7.14625
7.06611
6.98504
6.89855
6.805
6.70547
6.6023
6.49796
6.39406
6.29088
1
1
1
1
1
1
1
1
1
1
1
1
1
1
1
1
1
1
1
1
1
1
1
1
1
1
1
1
1
1
1
1
1
1
1
1
1
1
1
1
1
1
1
1
1
1
1
1
1
1
1
1
1
1
0.999998
0.999998
1.00002
1.00003
1.00484
1.92518
6.18232
7.24708
7.16997
7.08811
6.99809
6.90119
6.7998
6.69891
6.59989
6.50207
6.40392
6.30468
1
1
1
1
1
1
1
1
1
1
1
1
1
1
1
1
1
1
1
1
1
1
1
1
1
1
1
1
1
1
1
1
1
1
1
1
1
1
1
1
1
1
1
1
1
1
1
1
1
1
1
1
1
1
0.999999
0.999997
1
1.00003
1.00002
1.05584
3.39424
7.10528
7.20146
7.08074
6.98027
6.88292
6.79158
6.7009
6.60945
6.51568
6.4191
6.32034
1
1
1
1
1
1
1
1
1
1
1
1
1
1
1
1
1
1
1
1
1
1
1
1
1
1
1
1
1
1
1
1
1
1
1
1
1
1
1
1
1
1
1
1
1
1
1
1
1
1
1
1
1
1
1
0.999998
0.999997
1.00001
1.00004
1.00079
1.33367
5.17785
7.15207
7.04068
6.96667
6.88716
6.80365
6.717
6.62466
6.52894
6.43137
6.3328
1
1
1
1
1
1
1
1
1
1
1
1
1
1
1
1
1
1
1
1
1
1
1
1
1
1
1
1
1
1
1
1
1
1
1
1
1
1
1
1
1
1
1
1
1
1
1
1
1
1
1
1
1
1
1
0.999999
0.999997
0.999999
1.00003
1.00004
1.0116
2.21477
6.24743
7.07407
6.99761
6.91942
6.82843
6.7309
6.63289
6.53629
6.44054
6.34468
1
1
1
1
1
1
1
1
1
1
1
1
1
1
1
1
1
1
1
1
1
1
1
1
1
1
1
1
1
1
1
1
1
1
1
1
1
1
1
1
1
1
1
1
1
1
1
1
1
1
1
1
1
1
1
1
0.999998
0.999996
1
1.00004
1.00008
1.08834
3.65449
6.96362
7.03763
6.91943
6.82165
6.72652
6.63521
6.54485
6.45358
6.36054
1
1
1
1
1
1
1
1
1
1
1
1
1
1
1
1
1
1
1
1
1
1
1
1
1
1
1
1
1
1
1
1
1
1
1
1
1
1
1
1
1
1
1
1
1
1
1
1
1
1
1
1
1
1
1
1
1
0.999997
0.999997
1.00002
1.00005
1.00157
1.41763
5.1891
6.98717
6.89259
6.81331
6.73287
6.6486
6.5612
6.47085
6.37762
1
1
1
1
1
1
1
1
1
1
1
1
1
1
1
1
1
1
1
1
1
1
1
1
1
1
1
1
1
1
1
1
1
1
1
1
1
1
1
1
1
1
1
1
1
1
1
1
1
1
1
1
1
1
1
1
1
0.999999
0.999997
1
1.00003
1.00004
1.01623
2.26681
6.09035
6.92233
6.84928
6.76118
6.67033
6.57872
6.48588
6.39117
1
1
1
1
1
1
1
1
1
1
1
1
1
1
1
1
1
1
1
1
1
1
1
1
1
1
1
1
1
1
1
1
1
1
1
1
1
1
1
1
1
1
1
1
1
1
1
1
1
1
1
1
1
1
1
1
1
1
0.999998
0.999997
1.00001
1.00004
1.00014
1.09499
3.55657
6.76646
6.86122
6.76525
6.6752
6.58584
6.49408
6.40081
1
1
1
1
1
1
1
1
1
1
1
1
1
1
1
1
1
1
1
1
1
1
1
1
1
1
1
1
1
1
1
1
1
1
1
1
1
1
1
1
1
1
1
1
1
1
1
1
1
1
1
1
1
1
1
1
1
1
0.999999
0.999997
0.999998
1.00002
1.00005
1.00177
1.38805
4.95286
6.81159
6.76786
6.68319
6.59349
6.50412
6.41427
1
1
1
1
1
1
1
1
1
1
1
1
1
1
1
1
1
1
1
1
1
1
1
1
1
1
1
1
1
1
1
1
1
1
1
1
1
1
1
1
1
1
1
1
1
1
1
1
1
1
1
1
1
1
1
1
1
1
1
0.999999
0.999997
1
1.00003
1.00005
1.01458
2.10835
5.7439
6.76882
6.69232
6.60549
6.5204
6.43275
1
1
1
1
1
1
1
1
1
1
1
1
1
1
1
1
1
1
1
1
1
1
1
1
1
1
1
1
1
1
1
1
1
1
1
1
1
1
1
1
1
1
1
1
1
1
1
1
1
1
1
1
1
1
1
1
1
1
1
1
0.999998
0.999996
1.00001
1.00005
1.00013
1.07521
3.1777
6.42698
6.71137
6.63315
6.54375
6.45184
1
1
1
1
1
1
1
1
1
1
1
1
1
1
1
1
1
1
1
1
1
1
1
1
1
1
1
1
1
1
1
1
1
1
1
1
1
1
1
1
1
1
1
1
1
1
1
1
1
1
1
1
1
1
1
1
1
1
1
1
0.999999
0.999997
0.999997
1.00002
1.00005
1.00124
1.27678
4.42924
6.64029
6.66287
6.54784
6.46007
1
1
1
1
1
1
1
1
1
1
1
1
1
1
1
1
1
1
1
1
1
1
1
1
1
1
1
1
1
1
1
1
1
1
1
1
1
1
1
1
1
1
1
1
1
1
1
1
1
1
1
1
1
1
1
1
1
1
1
1
1
0.999999
0.999997
1
1.00003
1.00005
1.00884
1.78711
5.33516
6.63986
6.56211
6.4729
1
1
1
1
1
1
1
1
1
1
1
1
1
1
1
1
1
1
1
1
1
1
1
1
1
1
1
1
1
1
1
1
1
1
1
1
1
1
1
1
1
1
1
1
1
1
1
1
1
1
1
1
1
1
1
1
1
1
1
1
1
1
0.999998
0.999997
1
1.00004
1.00009
1.0433
2.60312
5.95703
6.57559
6.49475
1
1
1
1
1
1
1
1
1
1
1
1
1
1
1
1
1
1
1
1
1
1
1
1
1
1
1
1
1
1
1
1
1
1
1
1
1
1
1
1
1
1
1
1
1
1
1
1
1
1
1
1
1
1
1
1
1
1
1
1
1
1
1
0.999998
0.999997
1.00001
1.00004
1.00058
1.14918
3.66636
6.3641
6.49685
1
1
1
1
1
1
1
1
1
1
1
1
1
1
1
1
1
1
1
1
1
1
1
1
1
1
1
1
1
1
1
1
1
1
1
1
1
1
1
1
1
1
1
1
1
1
1
1
1
1
1
1
1
1
1
1
1
1
1
1
1
1
1
1
0.999998
0.999999
1.00002
1.00002
1.00347
1.43645
4.60782
6.50191
1
1
1
1
1
1
1
1
1
1
1
1
1
1
1
1
1
1
1
1
1
1
1
1
1
1
1
1
1
1
1
1
1
1
1
1
1
1
1
1
1
1
1
1
1
1
1
1
1
1
1
1
1
1
1
1
1
1
1
1
1
1
1
1
1
0.999998
0.999994
0.999987
0.999953
1.01762
1.98305
5.50215
1
1
1
1
1
1
1
1
1
1
1
1
1
1
1
1
1
1
1
1
1
1
1
1
1
1
1
1
1
1
1
1
1
1
1
1
1