/*--------------------------------*- C++ -*----------------------------------*\
  =========                 |
  \\      /  F ield         | OpenFOAM: The Open Source CFD Toolbox
   \\    /   O peration     | Website:  https://openfoam.org
    \\  /    A nd           | Version:  13
     \\/     M anipulation  |
\*---------------------------------------------------------------------------*/
FoamFile
{
    format      ascii;
    class       volScalarField;
    location    "4";
    object      rho_0;
}
// * * * * * * * * * * * * * * * * * * * * * * * * * * * * * * * * * * * * * //

dimensions      [1 -3 0 0 0 0 0];

internalField   nonuniform List<scalar> 
36576
(
1.40001
1.40001
1.40001
1.40001
1.40001
1.40001
1.40001
1.40001
1.40001
1.40001
1.40001
1.40001
1.40001
1.40001
1.40001
1.40001
1.40001
1.40001
1.40001
1.40001
1.40001
1.40001
1.40001
1.40001
1.40001
1.40001
1.40001
1.40001
1.40001
1.40001
1.40001
1.4
1.4
1.40001
1.40003
1.39983
1.40001
5.35576
5.50318
5.49074
5.5042
5.51686
5.53709
5.56449
5.59522
5.63016
5.66178
5.68679
5.70735
5.72448
5.74191
5.76283
5.78608
5.8108
5.83355
5.85395
5.87272
5.88997
5.90682
5.92289
5.93778
5.95156
5.9646
5.97695
5.98863
5.99962
6.00928
6.01611
6.02137
6.02209
6.03157
5.96562
1.40001
1.40001
1.40001
1.40001
1.40001
1.40001
1.40001
1.40001
1.40001
1.40001
1.40001
1.40001
1.40001
1.40001
1.40001
1.40001
1.40001
1.40001
1.40001
1.40001
1.40001
1.40001
1.40001
1.40001
1.40001
1.40001
1.40001
1.40001
1.40001
1.40001
1.40001
1.4
1.4
1.40001
1.40004
1.39989
1.39997
5.32833
5.48554
5.48661
5.50514
5.52335
5.54364
5.56848
5.59577
5.62561
5.65536
5.68121
5.70378
5.72331
5.74205
5.76266
5.78486
5.80884
5.83114
5.85165
5.87057
5.88782
5.90467
5.9207
5.9356
5.9494
5.96242
5.97473
5.98637
5.99732
6.00701
6.01386
6.01912
6.01981
6.02933
5.9634
1.40001
1.40001
1.40001
1.40001
1.40001
1.40001
1.40001
1.40001
1.40001
1.40001
1.40001
1.40001
1.40001
1.40001
1.40001
1.40001
1.40001
1.40001
1.40001
1.40001
1.40001
1.40001
1.40001
1.40001
1.40001
1.40001
1.40001
1.40001
1.40001
1.40001
1.40001
1.40001
1.4
1.4
1.40002
1.40003
1.39992
5.29179
5.4563
5.47294
5.49977
5.528
5.55284
5.57618
5.60038
5.62441
5.64976
5.67518
5.69893
5.72079
5.74199
5.76283
5.78432
5.80676
5.82814
5.84861
5.86775
5.88537
5.90222
5.91814
5.93295
5.94671
5.95975
5.97206
5.98369
5.99462
6.00432
6.01117
6.01643
6.01709
6.02664
5.96063
1.40001
1.40001
1.40001
1.40001
1.40001
1.40001
1.40001
1.40001
1.40001
1.40001
1.40001
1.40001
1.40001
1.40001
1.40001
1.40001
1.40001
1.40001
1.40001
1.40001
1.40001
1.40001
1.40001
1.40001
1.40001
1.40001
1.40001
1.40001
1.40001
1.40001
1.40001
1.40001
1.40001
1.4
1.4
1.40011
1.39978
5.21837
5.44269
5.46341
5.49255
5.52293
5.55183
5.57714
5.60086
5.62299
5.64572
5.66957
5.69356
5.71671
5.73961
5.7611
5.7821
5.80274
5.82323
5.84363
5.86309
5.88125
5.89813
5.91377
5.92837
5.94215
5.95522
5.96753
5.97913
5.99003
5.99975
6.0066
6.01184
6.01248
6.0221
5.95596
1.40001
1.40001
1.40001
1.40001
1.40001
1.40001
1.40001
1.40001
1.40001
1.40001
1.40001
1.40001
1.40001
1.40001
1.40001
1.40001
1.40001
1.40001
1.40001
1.40001
1.40001
1.40001
1.40001
1.40001
1.40001
1.40001
1.40001
1.40001
1.40001
1.40001
1.40001
1.40001
1.40001
1.4
1.39999
1.4001
1.39994
5.1162
5.44713
5.45752
5.48433
5.51466
5.54507
5.57238
5.59732
5.62009
5.64193
5.66516
5.68867
5.71173
5.73484
5.75663
5.77737
5.79721
5.81725
5.8375
5.85716
5.87564
5.89258
5.90798
5.92241
5.93622
5.94928
5.96155
5.9731
5.98397
5.9937
6.00056
6.0058
6.00643
6.01615
5.9498
1.40001
1.40001
1.40001
1.40001
1.40001
1.40001
1.40001
1.40001
1.40001
1.40001
1.40001
1.40001
1.40001
1.40001
1.40001
1.40001
1.40001
1.40001
1.40001
1.40001
1.40001
1.40001
1.40001
1.40001
1.40001
1.40001
1.40001
1.40001
1.40001
1.40001
1.40001
1.40001
1.40001
1.4
1.39999
1.40006
1.40001
4.98095
5.45952
5.45366
5.47463
5.50446
5.53516
5.56441
5.59107
5.61544
5.63755
5.66024
5.68335
5.70608
5.7287
5.75033
5.77065
5.79028
5.81015
5.83028
5.84993
5.86842
5.8853
5.90061
5.91496
5.92872
5.94171
5.95389
5.96536
5.9762
5.98595
5.99283
5.99809
5.99874
6.00859
5.94194
1.40001
1.40001
1.40001
1.40001
1.40001
1.40001
1.40001
1.40001
1.40001
1.40001
1.40001
1.40001
1.40001
1.40001
1.40001
1.40001
1.40001
1.40001
1.40001
1.40001
1.40001
1.40001
1.40001
1.40001
1.40001
1.40001
1.40001
1.40001
1.40001
1.40001
1.40001
1.40001
1.40001
1.4
1.39999
1.40007
1.3999
4.81955
5.46472
5.44987
5.46591
5.49411
5.52517
5.5557
5.58389
5.60955
5.63251
5.65484
5.67732
5.69946
5.72142
5.74258
5.76252
5.78207
5.80187
5.82189
5.8414
5.85975
5.8765
5.89172
5.906
5.91965
5.9325
5.94455
5.95592
5.96671
5.97646
5.98338
5.98869
5.98938
5.9994
5.93235
1.40001
1.40001
1.40001
1.40001
1.40001
1.40001
1.40001
1.40001
1.40001
1.40001
1.40001
1.40001
1.40001
1.40001
1.40001
1.40001
1.40001
1.40001
1.40001
1.40001
1.40001
1.40001
1.40001
1.40001
1.40001
1.40001
1.40001
1.40001
1.40001
1.40001
1.40001
1.40001
1.40001
1.4
1.39999
1.40011
1.3998
4.63593
5.46
5.44408
5.45765
5.48565
5.51721
5.54851
5.57711
5.60317
5.62656
5.64832
5.66997
5.69145
5.71275
5.73341
5.75309
5.77269
5.79249
5.81237
5.83165
5.84971
5.86621
5.88129
5.89548
5.90895
5.92161
5.93347
5.94469
5.9554
5.96514
5.97211
5.97749
5.97826
5.98847
5.9209
1.40001
1.40001
1.40001
1.40001
1.40001
1.40001
1.40001
1.40001
1.40001
1.40001
1.40001
1.40001
1.40001
1.40001
1.40001
1.40001
1.40001
1.40001
1.40001
1.40001
1.40001
1.40001
1.40001
1.40001
1.40001
1.40001
1.40001
1.40001
1.40001
1.40001
1.40001
1.40001
1.40001
1.4
1.4
1.4001
1.39978
4.4275
5.44806
5.43614
5.45031
5.47933
5.51123
5.54243
5.57072
5.59636
5.61903
5.64001
5.66092
5.68186
5.70266
5.72291
5.74268
5.76234
5.7821
5.80171
5.82062
5.83827
5.85442
5.86928
5.88336
5.8966
5.909
5.92061
5.93162
5.94218
5.95189
5.95891
5.96438
5.96524
5.97568
5.90744
1.40001
1.40001
1.40001
1.40001
1.40001
1.40001
1.40001
1.40001
1.40001
1.40001
1.40001
1.40001
1.40001
1.40001
1.40001
1.40001
1.40001
1.40001
1.40001
1.40001
1.40001
1.40001
1.40001
1.40001
1.40001
1.40001
1.40001
1.40001
1.40001
1.40001
1.40001
1.40001
1.4
1.4
1.40002
1.40005
1.39969
4.19619
5.42999
5.42499
5.44293
5.47544
5.50822
5.53809
5.56477
5.58862
5.60968
5.62977
5.65009
5.67073
5.69137
5.71155
5.73136
5.75096
5.77048
5.78963
5.80796
5.8251
5.84088
5.85558
5.86949
5.8825
5.89456
5.90586
5.9166
5.92696
5.9366
5.94366
5.9492
5.95017
5.96083
5.89176
1.40001
1.40001
1.40001
1.40001
1.40001
1.40001
1.40001
1.40001
1.40001
1.40001
1.40001
1.40001
1.40001
1.40001
1.40001
1.40001
1.40001
1.40001
1.40001
1.40001
1.40001
1.40001
1.40001
1.40001
1.40001
1.40001
1.40001
1.40001
1.40001
1.40001
1.40001
1.4
1.4
1.40001
1.40005
1.39992
1.39975
3.92468
5.41602
5.41774
5.44341
5.47637
5.50641
5.53241
5.55622
5.57827
5.59856
5.61867
5.63914
5.66001
5.68068
5.7008
5.72037
5.7395
5.75821
5.77644
5.79398
5.81047
5.82574
5.84032
5.85395
5.86663
5.87825
5.88914
5.89952
5.90959
5.91912
5.92619
5.93177
5.93283
5.94372
5.87362
1.40001
1.40001
1.40001
1.40001
1.40001
1.40001
1.40001
1.40001
1.40001
1.40001
1.40001
1.40001
1.40001
1.40001
1.40001
1.40001
1.40001
1.40001
1.40001
1.40001
1.40001
1.40001
1.40001
1.40001
1.40001
1.40001
1.40001
1.40001
1.40001
1.40001
1.40001
1.4
1.4
1.40001
1.40005
1.39983
1.39989
3.65703
5.4097
5.40628
5.4396
5.46844
5.49261
5.51385
5.53528
5.55768
5.58033
5.60311
5.62632
5.64872
5.66975
5.68941
5.70821
5.72638
5.7441
5.76141
5.77808
5.79392
5.80891
5.82326
5.8366
5.84886
5.85994
5.87031
5.88024
5.88994
5.89928
5.90628
5.91184
5.91296
5.92406
5.85271
1.40001
1.40001
1.40001
1.40001
1.40001
1.40001
1.40001
1.40001
1.40001
1.40001
1.40001
1.40001
1.40001
1.40001
1.40001
1.40001
1.40001
1.40001
1.40001
1.40001
1.40001
1.40001
1.40001
1.40001
1.40001
1.40001
1.40001
1.40001
1.40001
1.40001
1.40001
1.4
1.4
1.40001
1.40003
1.39992
1.40003
3.24178
5.45961
5.40862
5.45443
5.47791
5.49296
5.51059
5.53203
5.55433
5.5771
5.60088
5.62403
5.64464
5.66325
5.68055
5.69703
5.71304
5.72893
5.7448
5.76044
5.7757
5.79042
5.80433
5.81721
5.82893
5.83939
5.84914
5.85854
5.86778
5.87683
5.88366
5.88908
5.89022
5.90149
5.82865
1.40001
1.40001
1.40001
1.40001
1.40001
1.40001
1.40001
1.40001
1.40001
1.40001
1.40001
1.40001
1.40001
1.40001
1.40001
1.40001
1.40001
1.40001
1.40001
1.40001
1.40001
1.40001
1.40001
1.40001
1.40001
1.40001
1.40001
1.40001
1.40001
1.40001
1.40001
1.40001
1.4
1.4
1.40002
1.39999
1.4
2.9016
5.35355
5.30478
5.34122
5.386
5.42085
5.45603
5.49061
5.52326
5.55423
5.5827
5.60749
5.62855
5.64654
5.6631
5.67962
5.696
5.71192
5.72729
5.74219
5.75661
5.77056
5.78368
5.79578
5.80669
5.8164
5.82542
5.83416
5.84281
5.85142
5.85796
5.86311
5.86421
5.87557
5.80096
1.40001
1.40001
1.40001
1.40001
1.40001
1.40001
1.40001
1.40001
1.40001
1.40001
1.40001
1.40001
1.40001
1.40001
1.40001
1.40001
1.40001
1.40001
1.40001
1.40001
1.40001
1.40001
1.40001
1.40001
1.40001
1.40001
1.40001
1.40001
1.40001
1.40001
1.40001
1.40001
1.4
1.4
1.40001
1.40002
1.39993
1.81851
6.03964
5.49598
5.46394
5.47767
5.47545
5.48489
5.50146
5.52343
5.54588
5.5682
5.58763
5.60461
5.62154
5.63963
5.65784
5.67571
5.69261
5.70827
5.72298
5.73682
5.74978
5.76175
5.77259
5.78229
5.79096
5.799
5.80685
5.8147
5.82265
5.82872
5.8334
5.83438
5.84567
5.76904
1.40001
1.40001
1.40001
1.40001
1.40001
1.40001
1.40001
1.40001
1.40001
1.40001
1.40001
1.40001
1.40001
1.40001
1.40001
1.40001
1.40001
1.40001
1.40001
1.40001
1.40001
1.40001
1.40001
1.40001
1.40001
1.40001
1.40001
1.40001
1.40001
1.40001
1.40001
1.40001
1.4
1.4
1.40001
1.40003
1.39998
1.48689
5.74392
5.54188
5.50848
5.54572
5.55049
5.55363
5.55134
5.55057
5.55383
5.561
5.57113
5.58507
5.60093
5.61847
5.63704
5.65548
5.67258
5.68834
5.70277
5.71579
5.72755
5.73814
5.7475
5.75573
5.76301
5.76977
5.77637
5.78307
5.79001
5.79536
5.79926
5.8
5.81091
5.73213
1.40001
1.40001
1.40001
1.40001
1.40001
1.40001
1.40001
1.40001
1.40001
1.40001
1.40001
1.40001
1.40001
1.40001
1.40001
1.40001
1.40001
1.40001
1.40001
1.40001
1.40001
1.40001
1.40001
1.40001
1.40001
1.40001
1.40001
1.40001
1.40001
1.40001
1.40001
1.40001
1.40001
1.4
1.4
1.40002
1.40001
1.40256
5.35324
5.40735
5.44415
5.50178
5.52299
5.54564
5.56869
5.58149
5.58261
5.57879
5.57644
5.57954
5.58831
5.60279
5.61965
5.63636
5.65225
5.66687
5.67993
5.69185
5.70259
5.71193
5.71981
5.72646
5.73219
5.73738
5.74238
5.74748
5.75291
5.75714
5.75982
5.76011
5.77001
5.68933
1.40001
1.40001
1.40001
1.40001
1.40001
1.40001
1.40001
1.40001
1.40001
1.40001
1.40001
1.40001
1.40001
1.40001
1.40001
1.40001
1.40001
1.40001
1.40001
1.40001
1.40001
1.40001
1.40001
1.40001
1.40001
1.40001
1.40001
1.40001
1.40001
1.40001
1.40001
1.40001
1.40001
1.4
1.4
1.40002
1.4
1.40001
5.00169
5.31891
5.37063
5.42145
5.47111
5.51764
5.54707
5.56757
5.58534
5.59514
5.59396
5.59138
5.59289
5.60055
5.61138
5.62194
5.63351
5.64455
5.65501
5.66502
5.67426
5.68215
5.68857
5.69377
5.69795
5.70139
5.70438
5.70735
5.71063
5.71309
5.71383
5.71322
5.72106
5.63954
1.40001
1.40001
1.40001
1.40001
1.40001
1.40001
1.40001
1.40001
1.40001
1.40001
1.40001
1.40001
1.40001
1.40001
1.40001
1.40001
1.40001
1.40001
1.40001
1.40001
1.40001
1.40001
1.40001
1.40001
1.40001
1.40001
1.40001
1.40001
1.40001
1.40001
1.40001
1.40001
1.40001
1.4
1.4
1.40002
1.4
1.39999
4.51538
5.27961
5.32587
5.36438
5.41107
5.45132
5.49356
5.53335
5.55947
5.57745
5.59152
5.59988
5.60422
5.60708
5.61229
5.61547
5.61916
5.62395
5.62948
5.63611
5.64294
5.64883
5.65369
5.65744
5.65996
5.66137
5.66186
5.66196
5.66229
5.66195
5.65999
5.65756
5.66158
5.58296
1.40001
1.40001
1.40001
1.40001
1.40001
1.40001
1.40001
1.40001
1.40001
1.40001
1.40001
1.40001
1.40001
1.40001
1.40001
1.40001
1.40001
1.40001
1.40001
1.40001
1.40001
1.40001
1.40001
1.40001
1.40001
1.40001
1.40001
1.40001
1.40001
1.40001
1.40001
1.40001
1.40001
1.4
1.4
1.40002
1.39999
1.39997
3.93396
5.30321
5.31573
5.34561
5.37729
5.41478
5.44922
5.48248
5.51915
5.55134
5.56904
5.58542
5.5998
5.61093
5.61586
5.61483
5.61037
5.60577
5.60455
5.60642
5.60976
5.61314
5.6159
5.61756
5.61782
5.61676
5.6142
5.61054
5.60661
5.60185
5.59605
5.59087
5.5891
5.50494
1.40001
1.40001
1.40001
1.40001
1.40001
1.40001
1.40001
1.40001
1.40001
1.40001
1.40001
1.40001
1.40001
1.40001
1.40001
1.40001
1.40001
1.40001
1.40001
1.40001
1.40001
1.40001
1.40001
1.40001
1.40001
1.40001
1.40001
1.40001
1.40001
1.40001
1.40001
1.40001
1.40001
1.4
1.40001
1.40002
1.39997
1.39996
3.37683
5.24072
5.25777
5.29439
5.33244
5.36161
5.38787
5.42253
5.45814
5.49247
5.52555
5.5567
5.57435
5.59242
5.60649
5.60919
5.60403
5.59229
5.58273
5.57856
5.57677
5.57609
5.57542
5.57405
5.57151
5.56731
5.56097
5.55264
5.54329
5.53129
5.49795
5.53219
5.52311
5.49185
1.40001
1.40001
1.40001
1.40001
1.40001
1.40001
1.40001
1.40001
1.40001
1.40001
1.40001
1.40001
1.40001
1.40001
1.40001
1.40001
1.40001
1.40001
1.40001
1.40001
1.40001
1.40001
1.40001
1.40001
1.40001
1.40001
1.40001
1.40001
1.40001
1.40001
1.40001
1.40001
1.40001
1.4
1.40001
1.40001
1.39998
1.40009
2.1832
5.95369
5.41208
5.37131
5.3813
5.38219
5.39727
5.41068
5.42674
5.44678
5.47675
5.50556
5.53399
5.55833
5.57685
5.58903
5.59016
5.58018
5.56578
5.55402
5.54554
5.53956
5.5338
5.52786
5.52123
5.51284
5.50156
5.48681
5.46899
5.44559
5.40008
5.43165
5.41133
5.37935
1.40001
1.40001
1.40001
1.40001
1.40001
1.40001
1.40001
1.40001
1.40001
1.40001
1.40001
1.40001
1.40001
1.40001
1.40001
1.40001
1.40001
1.40001
1.40001
1.40001
1.40001
1.40001
1.40001
1.40001
1.40001
1.40001
1.40001
1.40001
1.40001
1.40001
1.40001
1.40001
1.40001
1.4
1.4
1.40001
1.40001
1.39998
1.55328
5.68217
5.48607
5.45554
5.47987
5.45104
5.42195
5.41317
5.42243
5.43893
5.44983
5.46773
5.48691
5.511
5.53417
5.55289
5.56268
5.56017
5.54848
5.53277
5.51753
5.50519
5.49318
5.48082
5.46816
5.45373
5.43577
5.41269
5.38405
5.34463
5.28038
5.30593
5.23312
5.17487
1.40001
1.40001
1.40001
1.40001
1.40001
1.40001
1.40001
1.40001
1.40001
1.40001
1.40001
1.40001
1.40001
1.40001
1.40001
1.40001
1.40001
1.40001
1.40001
1.40001
1.40001
1.40001
1.40001
1.40001
1.40001
1.40001
1.40001
1.40001
1.40001
1.40001
1.40001
1.40001
1.40001
1.40001
1.4
1.40001
1.40001
1.4
1.40672
5.10724
5.37169
5.40637
5.4502
5.45814
5.46477
5.45606
5.43855
5.42677
5.43029
5.44206
5.45499
5.46902
5.48616
5.50562
5.52113
5.52741
5.52255
5.50995
5.49206
5.47352
5.45437
5.43414
5.41352
5.39104
5.36425
5.33055
5.28805
5.22744
5.13688
5.13969
4.98997
4.84933
1.40001
1.40001
1.40001
1.40001
1.40001
1.40001
1.40001
1.40001
1.40001
1.40001
1.40001
1.40001
1.40001
1.40001
1.40001
1.40001
1.40001
1.40001
1.40001
1.40001
1.40001
1.40001
1.40001
1.40001
1.40001
1.40001
1.40001
1.40001
1.40001
1.40001
1.40001
1.40001
1.40001
1.40001
1.40001
1.40001
1.40001
1.4
1.40005
4.54561
5.20614
5.28917
5.36343
5.42434
5.43974
5.4568
5.46223
5.45335
5.43747
5.42656
5.42523
5.43379
5.44685
5.46118
5.47478
5.48413
5.48435
5.47825
5.46322
5.44252
5.41762
5.38874
5.35798
5.32532
5.2876
5.24107
5.18179
5.09787
4.97281
4.92642
4.60892
3.88559
1.40001
1.40001
1.40001
1.40001
1.40001
1.40001
1.40001
1.40001
1.40001
1.40001
1.40001
1.40001
1.40001
1.40001
1.40001
1.40001
1.40001
1.40001
1.40001
1.40001
1.40001
1.40001
1.40001
1.40001
1.40001
1.40001
1.40001
1.40001
1.40001
1.40001
1.40001
1.40001
1.40001
1.40001
1.40001
1.40001
1.4
1.40002
1.39998
3.90859
5.11106
5.24608
5.30927
5.35815
5.3972
5.44233
5.44728
5.45475
5.45218
5.44131
5.42511
5.41498
5.41469
5.42004
5.42924
5.43757
5.43738
5.4353
5.42508
5.40636
5.37975
5.34503
5.30378
5.2587
5.20766
5.147
5.0685
4.95802
4.80187
4.6844
4.1818
3.19403
1.40001
1.40001
1.40001
1.40001
1.40001
1.40001
1.40001
1.40001
1.40001
1.40001
1.40001
1.40001
1.40001
1.40001
1.40001
1.40001
1.40001
1.40001
1.40001
1.40001
1.40001
1.40001
1.40001
1.40001
1.40001
1.40001
1.40001
1.40001
1.40001
1.40001
1.40001
1.40001
1.40001
1.40001
1.40001
1.40001
1.4
1.40002
1.39997
3.26731
5.05588
5.16852
5.21063
5.26553
5.30756
5.35499
5.39867
5.42938
5.43199
5.43657
5.42787
5.41348
5.398
5.38937
5.38753
5.39081
5.38955
5.38616
5.37577
5.36019
5.33541
5.29922
5.25112
5.19341
5.12594
5.05038
4.95639
4.82028
4.63739
4.45865
4.00807
3.22565
1.40001
1.40001
1.40001
1.40001
1.40001
1.40001
1.40001
1.40001
1.40001
1.40001
1.40001
1.40001
1.40001
1.40001
1.40001
1.40001
1.40001
1.40001
1.40001
1.40001
1.40001
1.40001
1.40001
1.40001
1.40001
1.40001
1.40001
1.40001
1.40001
1.40001
1.40001
1.40001
1.40001
1.40001
1.40001
1.40001
1.4
1.40002
1.39999
1.87583
5.55041
5.3683
5.31717
5.29894
5.30388
5.32042
5.34387
5.36784
5.39353
5.40557
5.41
5.40625
5.39265
5.37319
5.35759
5.34762
5.34273
5.33333
5.32279
5.3064
5.28203
5.24645
5.19611
5.12938
5.04637
4.96384
4.8454
4.69001
4.48874
4.27391
3.83418
3.19976
1.40001
1.40001
1.40001
1.40001
1.40001
1.40001
1.40001
1.40001
1.40001
1.40001
1.40001
1.40001
1.40001
1.40001
1.40001
1.40001
1.40001
1.40001
1.40001
1.40001
1.40001
1.40001
1.40001
1.40001
1.40001
1.40001
1.40001
1.40001
1.40001
1.40001
1.40001
1.40001
1.40001
1.40001
1.40001
1.4
1.4
1.40001
1.4
1.50596
5.03289
5.45749
5.37718
5.33124
5.31492
5.31846
5.32227
5.33699
5.3478
5.36381
5.37298
5.3766
5.3733
5.35823
5.3359
5.3149
5.29631
5.28353
5.2661
5.24734
5.22444
5.18712
5.13606
5.0662
4.97642
4.88033
4.74456
4.57544
4.35075
4.04535
3.63552
3.12465
1.40001
1.40001
1.40001
1.40001
1.40001
1.40001
1.40001
1.40001
1.40001
1.40001
1.40001
1.40001
1.40001
1.40001
1.40001
1.40001
1.40001
1.40001
1.40001
1.40001
1.40001
1.40001
1.40001
1.40001
1.40001
1.40001
1.40001
1.40001
1.40001
1.40001
1.40001
1.40001
1.40001
1.40001
1.40001
1.4
1.40001
1.40001
1.39999
1.403
4.1804
5.36783
5.35898
5.3447
5.35271
5.34147
5.3252
5.31813
5.32054
5.32866
5.33596
5.33953
5.34238
5.33513
5.31588
5.28965
5.2614
5.23371
5.21476
5.18882
5.15995
5.12372
5.07368
5.0034
4.91176
4.80172
4.65669
4.47983
4.25397
3.96803
3.6127
3.20658
1.40001
1.40001
1.40001
1.40001
1.40001
1.40001
1.40001
1.40001
1.40001
1.40001
1.40001
1.40001
1.40001
1.40001
1.40001
1.40001
1.40001
1.40001
1.40001
1.40001
1.40001
1.40001
1.40001
1.40001
1.40001
1.40001
1.40001
1.40001
1.40001
1.40001
1.40001
1.40001
1.40001
1.40001
1.40001
1.4
1.4
1.40001
1.4
1.40001
3.41221
5.24836
5.23042
5.26927
5.29275
5.29782
5.30305
5.2985
5.2942
5.29394
5.29707
5.30183
5.30364
5.30096
5.28839
5.26568
5.23377
5.19807
5.16259
5.13578
5.0987
5.05737
5.00738
4.93952
4.84767
4.73224
4.58385
4.40267
4.18364
3.92089
3.61308
3.27393
1.40001
1.40001
1.40001
1.40001
1.40001
1.40001
1.40001
1.40001
1.40001
1.40001
1.40001
1.40001
1.40001
1.40001
1.40001
1.40001
1.40001
1.40001
1.40001
1.40001
1.40001
1.40001
1.40001
1.40001
1.40001
1.40001
1.40001
1.40001
1.40001
1.40001
1.40001
1.40001
1.40001
1.40001
1.40001
1.4
1.4
1.40001
1.40001
1.39999
1.96599
5.70061
5.39291
5.33942
5.30803
5.29346
5.29415
5.28809
5.27963
5.27071
5.26573
5.26388
5.26438
5.26226
5.25172
5.23446
5.20653
5.16835
5.12503
5.08527
5.0441
4.99419
4.93891
4.87199
4.78605
4.67126
4.52588
4.34578
4.13596
3.89355
3.61953
3.32915
1.40001
1.40001
1.40001
1.40001
1.40001
1.40001
1.40001
1.40001
1.40001
1.40001
1.40001
1.40001
1.40001
1.40001
1.40001
1.40001
1.40001
1.40001
1.40001
1.40001
1.40001
1.40001
1.40001
1.40001
1.40001
1.40001
1.40001
1.40001
1.40001
1.40001
1.40001
1.40001
1.40001
1.40001
1.40001
1.40001
1.4
1.40001
1.40002
1.39999
1.52214
5.19577
5.35777
5.31553
5.31007
5.30262
5.29602
5.28483
5.27013
5.25452
5.24157
5.23177
5.22628
5.22074
5.21158
5.19745
5.17298
5.13857
5.09376
5.0409
4.99891
4.93923
4.8743
4.80166
4.71094
4.60049
4.46243
4.29677
4.10179
3.8789
3.63206
3.37704
1.40001
1.40001
1.40001
1.40001
1.40001
1.40001
1.40001
1.40001
1.40001
1.40001
1.40001
1.40001
1.40001
1.40001
1.40001
1.40001
1.40001
1.40001
1.40001
1.40001
1.40001
1.40001
1.40001
1.40001
1.40001
1.40001
1.40001
1.40001
1.40001
1.40001
1.40001
1.40001
1.40001
1.40001
1.40001
1.40001
1.4
1.4
1.40002
1.4
1.40376
4.25718
5.22378
5.2727
5.30443
5.30801
5.30651
5.29881
5.28062
5.25778
5.23406
5.21249
5.19483
5.18391
5.17084
5.15505
5.13506
5.10436
5.06146
5.00905
4.95631
4.89069
4.82018
4.7416
4.65202
4.54545
4.41643
4.26214
4.08083
3.87607
3.65054
3.42204
1.40001
1.40001
1.40001
1.40001
1.40001
1.40001
1.40001
1.40001
1.40001
1.40001
1.40001
1.40001
1.40001
1.40001
1.40001
1.40001
1.40001
1.40001
1.40001
1.40001
1.40001
1.40001
1.40001
1.40001
1.40001
1.40001
1.40001
1.40001
1.40001
1.40001
1.40001
1.40001
1.40001
1.40001
1.40001
1.40001
1.4
1.4
1.40001
1.4
1.40002
3.42361
5.12475
5.1507
5.19766
5.2393
5.2669
5.26931
5.26492
5.25151
5.23003
5.20366
5.17675
5.15239
5.13518
5.11521
5.09204
5.0642
5.02678
4.97665
4.91919
4.84969
4.77319
4.68896
4.59854
4.49462
4.3734
4.23043
4.06396
3.87698
3.67232
3.46528
1.40001
1.40001
1.40001
1.40001
1.40001
1.40001
1.40001
1.40001
1.40001
1.40001
1.40001
1.40001
1.40001
1.40001
1.40001
1.40001
1.40001
1.40001
1.40001
1.40001
1.40001
1.40001
1.40001
1.40001
1.40001
1.40001
1.40001
1.40001
1.40001
1.40001
1.40001
1.40001
1.40001
1.40001
1.40001
1.40001
1.4
1.4
1.40001
1.40002
1.39994
1.92689
5.45241
5.29087
5.26914
5.25367
5.24685
5.2424
5.24042
5.23281
5.21797
5.19499
5.16557
5.13409
5.1032
5.08026
5.05275
5.02136
4.98581
4.94014
4.88347
4.81432
4.73517
4.64881
4.55186
4.44797
4.33127
4.19835
4.04684
3.87781
3.69494
3.5042
1.40001
1.40001
1.40001
1.40001
1.40001
1.40001
1.40001
1.40001
1.40001
1.40001
1.40001
1.40001
1.40001
1.40001
1.40001
1.40001
1.40001
1.40001
1.40001
1.40001
1.40001
1.40001
1.40001
1.40001
1.40001
1.40001
1.40001
1.40001
1.40001
1.40001
1.40001
1.40001
1.40001
1.40001
1.40001
1.40001
1.4
1.4
1.40001
1.40003
1.39996
1.51658
4.76307
5.27909
5.2531
5.24073
5.23246
5.22427
5.2178
5.20984
5.19845
5.18033
5.15431
5.12124
5.08495
5.04688
5.01948
4.98267
4.94306
4.89876
4.84548
4.7801
4.70244
4.6142
4.51651
4.40973
4.29444
4.16825
4.02909
3.87633
3.71321
3.5363
1.40001
1.40001
1.40001
1.40001
1.40001
1.40001
1.40001
1.40001
1.40001
1.40001
1.40001
1.40001
1.40001
1.40001
1.40001
1.40001
1.40001
1.40001
1.40001
1.40001
1.40001
1.40001
1.40001
1.40001
1.40001
1.40001
1.40001
1.40001
1.40001
1.40001
1.40001
1.40001
1.40001
1.40001
1.40001
1.40001
1.4
1.4
1.4
1.40003
1.39999
1.40333
3.78903
5.18679
5.18634
5.1887
5.19591
5.1943
5.18937
5.1824
5.17251
5.1574
5.136
5.10655
5.07013
5.02894
4.98739
4.9492
4.90516
4.85721
4.80462
4.74387
4.67066
4.58476
4.48813
4.38119
4.26622
4.14347
4.01246
3.87214
3.7227
3.55975
1.40001
1.40001
1.40001
1.40001
1.40001
1.40001
1.40001
1.40001
1.40001
1.40001
1.40001
1.40001
1.40001
1.40001
1.40001
1.40001
1.40001
1.40001
1.40001
1.40001
1.40001
1.40001
1.40001
1.40001
1.40001
1.40001
1.40001
1.40001
1.40001
1.40001
1.40001
1.40001
1.40001
1.40001
1.40001
1.40001
1.40001
1.4
1.4
1.40002
1.39998
1.4
2.214
5.57587
5.2977
5.22726
5.20287
5.18425
5.16832
5.15486
5.14327
5.12831
5.10976
5.08368
5.05158
5.01152
4.96583
4.9213
4.87314
4.82083
4.76487
4.70306
4.63313
4.55333
4.46179
4.35906
4.24661
4.12637
3.99986
3.86709
3.72764
3.578
1.40001
1.40001
1.40001
1.40001
1.40001
1.40001
1.40001
1.40001
1.40001
1.40001
1.40001
1.40001
1.40001
1.40001
1.40001
1.40001
1.40001
1.40001
1.40001
1.40001
1.40001
1.40001
1.40001
1.40001
1.40001
1.40001
1.40001
1.40001
1.40001
1.40001
1.40001
1.40001
1.40001
1.40001
1.40001
1.40001
1.40001
1.4
1.4
1.40001
1.40005
1.39987
1.57333
5.03626
5.28164
5.24058
5.21758
5.19664
5.17024
5.14429
5.12024
5.10093
5.07954
5.05534
5.02778
4.98978
4.94684
4.89845
4.8473
4.79054
4.73113
4.66704
4.599
4.52192
4.4353
4.33853
4.23161
4.11576
3.99311
3.86532
3.73179
3.59256
1.40001
1.40001
1.40001
1.40001
1.40001
1.40001
1.40001
1.40001
1.40001
1.40001
1.40001
1.40001
1.40001
1.40001
1.40001
1.40001
1.40001
1.40001
1.40001
1.40001
1.40001
1.40001
1.40001
1.40001
1.40001
1.40001
1.40001
1.40001
1.40001
1.40001
1.40001
1.40001
1.40001
1.40001
1.40001
1.40001
1.40001
1.4
1.4
1.4
1.40005
1.39998
1.40621
3.97531
5.17583
5.17925
5.18044
5.17323
5.15879
5.13477
5.10672
5.07808
5.05316
5.02702
4.9983
4.96472
4.92519
4.87838
4.82558
4.76664
4.70407
4.63884
4.56735
4.49299
4.41022
4.31875
4.21796
4.10826
3.99094
3.86741
3.73822
3.60751
1.40001
1.40001
1.40001
1.40001
1.40001
1.40001
1.40001
1.40001
1.40001
1.40001
1.40001
1.40001
1.40001
1.40001
1.40001
1.40001
1.40001
1.40001
1.40001
1.40001
1.40001
1.40001
1.40001
1.40001
1.40001
1.40001
1.40001
1.40001
1.40001
1.40001
1.40001
1.40001
1.40001
1.40001
1.40001
1.40001
1.40001
1.4
1.4
1.4
1.40003
1.39988
1.40055
2.54881
5.46889
5.20309
5.15273
5.14488
5.13596
5.11609
5.09024
5.06092
5.02955
5.00154
4.9711
4.93715
4.89976
4.85617
4.80539
4.74728
4.68344
4.61555
4.54428
4.46688
4.38636
4.29875
4.20363
4.10058
3.98971
3.87208
3.7482
3.62463
1.40001
1.40001
1.40001
1.40001
1.40001
1.40001
1.40001
1.40001
1.40001
1.40001
1.40001
1.40001
1.40001
1.40001
1.40001
1.40001
1.40001
1.40001
1.40001
1.40001
1.40001
1.40001
1.40001
1.40001
1.40001
1.40001
1.40001
1.40001
1.40001
1.40001
1.40001
1.40001
1.40001
1.40001
1.40001
1.40001
1.40001
1.40001
1.4
1.4
1.40002
1.40003
1.39987
1.64484
5.08607
5.20165
5.16856
5.14676
5.12479
5.1012
5.07648
5.04769
5.015
4.97923
4.94891
4.91267
4.87385
4.83147
4.7835
4.7285
4.66639
4.59797
4.52499
4.44765
4.36577
4.28025
4.18905
4.09172
3.98756
3.87696
3.76033
3.64284
1.40001
1.40001
1.40001
1.40001
1.40001
1.40001
1.40001
1.40001
1.40001
1.40001
1.40001
1.40001
1.40001
1.40001
1.40001
1.40001
1.40001
1.40001
1.40001
1.40001
1.40001
1.40001
1.40001
1.40001
1.40001
1.40001
1.40001
1.40001
1.40001
1.40001
1.40001
1.40001
1.40001
1.40001
1.40001
1.40001
1.40001
1.40001
1.4
1.4
1.40001
1.40004
1.39997
1.41224
4.00371
5.15266
5.12584
5.11033
5.0918
5.07682
5.05851
5.03328
5.00231
4.96727
4.93034
4.89361
4.85213
4.80791
4.76049
4.70809
4.64924
4.58324
4.51074
4.43342
4.35122
4.26567
4.17637
4.0828
3.98418
3.8801
3.77174
3.6596
1.40001
1.40001
1.40001
1.40001
1.40001
1.40001
1.40001
1.40001
1.40001
1.40001
1.40001
1.40001
1.40001
1.40001
1.40001
1.40001
1.40001
1.40001
1.40001
1.40001
1.40001
1.40001
1.40001
1.40001
1.40001
1.40001
1.40001
1.40001
1.40001
1.40001
1.40001
1.40001
1.40001
1.40001
1.40001
1.40001
1.40001
1.40001
1.4
1.4
1.4
1.40002
1.39998
1.40015
2.39212
5.45049
5.18032
5.09238
5.06847
5.05203
5.03445
5.0118
4.98452
4.95319
4.91595
4.87881
4.83479
4.78812
4.73939
4.68728
4.63058
4.56793
4.49848
4.42273
4.34208
4.25611
4.16783
4.076
3.98083
3.88184
3.7801
3.67295
1.40001
1.40001
1.40001
1.40001
1.40001
1.40001
1.40001
1.40001
1.40001
1.40001
1.40001
1.40001
1.40001
1.40001
1.40001
1.40001
1.40001
1.40001
1.40001
1.40001
1.40001
1.40001
1.40001
1.40001
1.40001
1.40001
1.40001
1.40001
1.40001
1.40001
1.40001
1.40001
1.40001
1.40001
1.40001
1.40001
1.40001
1.40001
1.40001
1.4
1.4
1.40001
1.40003
1.39993
1.61358
4.94422
5.1316
5.09305
5.07576
5.05407
5.02546
4.9973
4.96971
4.93968
4.9047
4.86587
4.82076
4.77261
4.72217
4.66885
4.61213
4.55126
4.48522
4.413
4.33495
4.25212
4.16416
4.07335
3.98002
3.88392
3.78621
3.68415
1.40001
1.40001
1.40001
1.40001
1.40001
1.40001
1.40001
1.40001
1.40001
1.40001
1.40001
1.40001
1.40001
1.40001
1.40001
1.40001
1.40001
1.40001
1.40001
1.40001
1.40001
1.40001
1.40001
1.40001
1.40001
1.40001
1.40001
1.40001
1.40001
1.40001
1.40001
1.40001
1.40001
1.40001
1.40001
1.40001
1.40001
1.40001
1.40001
1.4
1.4
1.4
1.40002
1.39999
1.40909
3.80966
5.04557
5.02067
5.02137
5.01261
4.99425
4.9749
4.95344
4.92576
4.89207
4.85362
4.80936
4.76096
4.70916
4.65423
4.59644
4.53553
4.47096
4.40216
4.32809
4.24838
4.16358
4.07456
3.98251
3.88835
3.79314
3.69494
1.40001
1.40001
1.40001
1.40001
1.40001
1.40001
1.40001
1.40001
1.40001
1.40001
1.40001
1.40001
1.40001
1.40001
1.40001
1.40001
1.40001
1.40001
1.40001
1.40001
1.40001
1.40001
1.40001
1.40001
1.40001
1.40001
1.40001
1.40001
1.40001
1.40001
1.40001
1.40001
1.40001
1.40001
1.40001
1.40001
1.40001
1.40001
1.40001
1.40001
1.4
1.4
1.40001
1.40001
1.40003
2.19209
5.24008
5.11741
5.04327
4.99836
4.97474
4.9551
4.93702
4.90907
4.87617
4.83937
4.79737
4.75041
4.69877
4.6431
4.58427
4.52271
4.45833
4.39061
4.31893
4.24254
4.16173
4.07661
3.98776
3.89581
3.80306
3.70679
1.40001
1.40001
1.40001
1.40001
1.40001
1.40001
1.40001
1.40001
1.40001
1.40001
1.40001
1.40001
1.40001
1.40001
1.40001
1.40001
1.40001
1.40001
1.40001
1.40001
1.40001
1.40001
1.40001
1.40001
1.40001
1.40001
1.40001
1.40001
1.40001
1.40001
1.40001
1.40001
1.40001
1.40001
1.40001
1.40001
1.40001
1.40001
1.40001
1.40001
1.4
1.4
1.40001
1.40003
1.39999
1.54938
4.53851
5.02122
4.9933
4.98436
4.97324
4.95273
4.92805
4.89652
4.86224
4.82546
4.78472
4.73938
4.68917
4.63427
4.5754
4.51333
4.44863
4.38135
4.31064
4.2374
4.16002
4.07861
3.9935
3.90499
3.81504
3.72059
1.40001
1.40001
1.40001
1.40001
1.40001
1.40001
1.40001
1.40001
1.40001
1.40001
1.40001
1.40001
1.40001
1.40001
1.40001
1.40001
1.40001
1.40001
1.40001
1.40001
1.40001
1.40001
1.40001
1.40001
1.40001
1.40001
1.40001
1.40001
1.40001
1.40001
1.40001
1.40001
1.40001
1.40001
1.40001
1.40001
1.40001
1.40001
1.40001
1.40001
1.40001
1.4
1.4
1.40002
1.39997
1.40474
3.26755
4.95819
4.94694
4.95998
4.95415
4.93536
4.91152
4.88138
4.84829
4.81187
4.77155
4.72733
4.67887
4.62586
4.56837
4.50689
4.44213
4.37479
4.30531
4.23261
4.15798
4.07954
3.99798
3.91352
3.82705
3.73551
1.40001
1.40001
1.40001
1.40001
1.40001
1.40001
1.40001
1.40001
1.40001
1.40001
1.40001
1.40001
1.40001
1.40001
1.40001
1.40001
1.40001
1.40001
1.40001
1.40001
1.40001
1.40001
1.40001
1.40001
1.40001
1.40001
1.40001
1.40001
1.40001
1.40001
1.40001
1.40001
1.40001
1.40001
1.40001
1.40001
1.40001
1.40001
1.40001
1.40001
1.40001
1.4
1.4
1.40001
1.40002
1.39996
1.87361
4.7964
5.06612
5.0157
4.96807
4.93506
4.90576
4.87465
4.84008
4.80187
4.76037
4.71593
4.66834
4.61701
4.56151
4.50173
4.43807
4.37117
4.30185
4.23047
4.15599
4.08014
4.00138
3.9206
3.83782
3.74961
1.40001
1.40001
1.40001
1.40001
1.40001
1.40001
1.40001
1.40001
1.40001
1.40001
1.40001
1.40001
1.40001
1.40001
1.40001
1.40001
1.40001
1.40001
1.40001
1.40001
1.40001
1.40001
1.40001
1.40001
1.40001
1.40001
1.40001
1.40001
1.40001
1.40001
1.40001
1.40001
1.40001
1.40001
1.40001
1.40001
1.40001
1.40001
1.40001
1.40001
1.40001
1.4
1.4
1.40001
1.40003
1.39998
1.4403
3.72106
5.00151
4.96174
4.93471
4.91513
4.89193
4.86409
4.83051
4.79208
4.75035
4.70586
4.65851
4.60802
4.55403
4.49627
4.43464
4.36937
4.301
4.2303
4.15728
4.08164
4.00493
3.92718
3.84709