/*--------------------------------*- C++ -*----------------------------------*\
  =========                 |
  \\      /  F ield         | OpenFOAM: The Open Source CFD Toolbox
   \\    /   O peration     | Website:  https://openfoam.org
    \\  /    A nd           | Version:  13
     \\/     M anipulation  |
\*---------------------------------------------------------------------------*/
FoamFile
{
    format      ascii;
    class       volScalarField;
    location    "4";
    object      CrankNicolson:ddt0(rho);
}
// * * * * * * * * * * * * * * * * * * * * * * * * * * * * * * * * * * * * * //

dimensions      [1 -3 -1 0 0 0 0];

internalField   nonuniform List<scalar> 
36576
(
-8.44916e-16
2.46408e-14
-9.07172e-14
2.89842e-14
1.40439e-13
2.30651e-13
-1.11261e-13
-1.71711e-13
-2.60417e-13
5.08134e-13
1.94814e-14
1.10206e-13
-1.62215e-13
-3.7681e-14
-3.34693e-14
1.42529e-12
6.72864e-13
-1.87602e-12
2.56989e-13
3.67498e-12
1.33156e-11
1.12975e-11
6.48098e-11
2.51984e-10
1.53608e-09
8.53886e-09
3.55987e-08
1.29718e-07
2.94017e-07
-5.14152e-07
-9.28473e-06
-2.90157e-05
-1.55499e-05
0.000431266
0.00108234
-0.0093587
0.0133234
-1.79759
0.00669868
0.345157
1.01192
0.962642
0.365148
-0.0161483
-0.358956
-0.62438
-0.320162
-0.104592
-0.0307342
0.133535
-0.0307119
-0.109832
-0.0560664
0.0770087
0.30023
0.371824
0.292231
0.106385
-0.0854822
-0.199357
-0.199301
-0.138755
-0.0588887
-0.00536311
-0.00141251
-0.0357526
-0.0532674
-0.0423111
0.00682464
0.0761017
0.148794
0.175481
9.77559e-14
-5.01456e-14
1.97322e-13
7.04456e-14
4.00898e-13
1.41987e-13
-4.65889e-13
-8.38234e-13
-1.89924e-14
4.46848e-13
-1.98843e-13
-3.57529e-13
4.2951e-14
3.92151e-13
2.80988e-13
9.65926e-13
3.91439e-13
-1.09026e-12
2.7523e-13
3.87699e-12
-2.25601e-12
1.15868e-11
6.41966e-11
1.23941e-10
9.41006e-10
6.14058e-09
3.1631e-08
1.12726e-07
2.44766e-07
-2.59316e-07
-6.4148e-06
-3.28769e-05
-5.74164e-05
0.000176734
0.00150954
-0.00428764
-0.00187541
-0.178196
-0.821283
-0.156905
0.322325
0.636325
0.364192
0.134111
0.0153691
-0.31214
-0.226429
-0.162626
-0.123052
-0.0302543
-0.0697885
-0.067879
0.00402657
0.130117
0.322916
0.362605
0.28394
0.0964121
-0.0929213
-0.202127
-0.200926
-0.14014
-0.063604
-0.0125198
-0.00440767
-0.0309649
-0.0396724
-0.0254692
0.0187746
0.0768314
0.134546
0.152669
9.38976e-14
4.1842e-14
-1.24813e-13
-1.3063e-13
3.12675e-13
8.78915e-14
-3.47465e-14
-2.50928e-13
7.94565e-15
3.32866e-14
-2.58211e-13
-5.76766e-13
7.76845e-13
3.90593e-13
2.69998e-13
1.32791e-12
3.9929e-13
-1.58871e-12
2.41671e-12
3.79808e-12
-1.25106e-11
-2.94154e-11
-1.18908e-10
-4.92532e-10
-1.84704e-09
-6.08538e-09
-2.24422e-08
-8.45873e-08
-3.68725e-07
-8.05586e-07
-7.12265e-07
3.67621e-07
2.3574e-08
-0.000234491
0.000327357
0.00433269
-0.00508375
1.53617
-1.19049
-0.639331
-0.450976
-0.254439
0.125872
0.251433
0.231971
0.17847
-0.0297828
-0.151265
-0.154993
-0.223974
-0.141399
-0.0518006
0.0664315
0.238312
0.359866
0.3631
0.262534
0.0732654
-0.104494
-0.202968
-0.199561
-0.139461
-0.0689949
-0.0197674
-0.00841408
-0.0260142
-0.0246699
-0.00580907
0.0334723
0.0789975
0.118097
0.123553
-1.60349e-14
-2.70266e-13
-2.16903e-13
1.84278e-13
7.7744e-13
2.79362e-13
-1.37431e-12
6.37976e-14
-2.70587e-14
2.29104e-13
-1.64432e-13
1.97173e-13
3.20444e-13
3.15554e-13
9.02744e-13
-1.87972e-13
-4.9164e-13
-9.88205e-13
-7.49988e-13
3.96834e-12
-3.63357e-12
-4.57299e-11
-3.35962e-10
-1.2053e-09
-4.56021e-09
-1.78429e-08
-7.30214e-08
-3.03128e-07
-1.06756e-06
-2.55799e-06
3.36316e-06
2.82639e-05
7.77421e-05
-0.000354561
-0.00117149
0.00734559
0.000780518
1.75348
-1.3275
-0.782221
-0.588752
-0.539597
-0.127742
0.16277
0.308145
0.368162
0.155778
-0.0768807
-0.198241
-0.277768
-0.213822
-0.0185247
0.138722
0.34551
0.397595
0.351073
0.22346
0.0407219
-0.116916
-0.19267
-0.192958
-0.141621
-0.075832
-0.0287541
-0.0123679
-0.0180788
-0.00383429
0.0200758
0.0513722
0.0790573
0.094339
0.0848378
8.90868e-14
-6.02082e-14
5.88658e-14
3.58187e-14
-1.94174e-13
4.49509e-13
-1.55305e-13
1.35701e-13
-1.56999e-13
-2.02936e-13
5.48632e-13
8.57356e-13
-2.54815e-13
-9.95055e-13
1.05511e-12
2.15325e-12
-3.25707e-12
1.31833e-12
8.97294e-13
4.94888e-12
-1.58719e-11
-9.21359e-11
-3.81398e-10
-1.64569e-09
-6.3121e-09
-2.43776e-08
-9.98553e-08
-4.10098e-07
-1.43223e-06
-3.61518e-06
-1.28832e-07
3.50194e-05
0.000104682
-0.000299232
-0.000997867
0.00561795
-0.000183627
0.905125
-0.718445
-0.46702
-0.396604
-0.408268
-0.264402
0.0413293
0.208071
0.341659
0.192882
-0.0294585
-0.15322
-0.238222
-0.215716
0.0114002
0.200692
0.38631
0.412341
0.333894
0.190069
0.0101411
-0.12268
-0.183904
-0.185911
-0.142136
-0.0813058
-0.0355014
-0.0139583
-0.00923694
0.0169869
0.0453437
0.067771
0.0769057
0.0678049
0.0436283
-7.9926e-14
-8.04293e-15
-4.04238e-13
3.2219e-13
1.6173e-13
-3.01414e-13
4.08065e-13
2.05028e-13
-1.87253e-13
-3.75234e-13
-1.42798e-13
-1.91976e-14
1.34339e-13
-4.28701e-14
3.41111e-13
4.94934e-13
-2.29474e-13
1.04583e-13
-1.42149e-13
3.77873e-13
-1.76499e-11
-8.21577e-11
-4.5777e-10
-1.733e-09
-6.50654e-09
-2.50244e-08
-9.85367e-08
-3.97613e-07
-1.488e-06
-4.20507e-06
-5.10475e-06
3.15685e-05
9.12677e-05
0.000126272
-0.000513958
0.00262946
-0.0152367
-0.48601
0.353405
0.150481
-0.0491047
-0.210968
-0.246336
-0.0723211
0.0757395
0.226515
0.191276
0.00216083
-0.10141
-0.187823
-0.160772
0.0272206
0.241757
0.384606
0.400636
0.310206
0.162893
-0.00761368
-0.12532
-0.176637
-0.177609
-0.137564
-0.0815266
-0.037535
-0.0125365
-0.000109689
0.0347558
0.0650446
0.0781912
0.070684
0.0409293
0.00579557
-8.55151e-15
5.56499e-15
-1.37411e-13
2.58889e-13
1.0493e-14
-4.97356e-13
-2.39442e-13
5.62706e-13
-3.56541e-13
-2.69657e-14
-9.13374e-14
3.69048e-13
-9.31949e-14
-5.49541e-13
-2.91796e-14
2.29314e-13
1.22452e-12
1.12159e-12
-6.67885e-13
5.18117e-12
-1.80519e-11
-8.06298e-11
-4.36825e-10
-1.62194e-09
-6.16257e-09
-2.4102e-08
-8.86178e-08
-3.58442e-07
-1.3759e-06
-4.309e-06
-7.4985e-06
1.92506e-05
7.746e-05
0.000275878
-0.000603066
0.00137988
-0.00467415
-1.04395
0.976073
0.599613
0.244472
-0.0391565
-0.17713
-0.160868
-0.0344864
0.114669
0.159155
0.0414613
-0.044469
-0.11446
-0.0976997
0.0616901
0.245705
0.361101
0.369259
0.278785
0.136425
-0.0165459
-0.120424
-0.166463
-0.165266
-0.128112
-0.0764506
-0.0346831
-0.00828105
0.00823948
0.0466859
0.0755963
0.0802189
0.060005
0.0162553
-0.0241984
9.70634e-15
-5.56218e-14
-1.46411e-13
-1.34132e-13
-1.26504e-13
2.10154e-13
3.22995e-13
1.57447e-13
-2.06605e-13
1.69336e-13
1.44427e-15
-4.62902e-13
-8.89477e-13
5.23145e-13
-5.39621e-13
-2.09415e-13
-2.08098e-13
4.68412e-13
8.95704e-12
-6.34389e-14
-2.48192e-11
-8.0147e-11
-3.54472e-10
-1.50138e-09
-5.46439e-09
-2.09577e-08
-8.46495e-08
-3.35305e-07
-1.26249e-06
-3.86887e-06
-7.43246e-06
1.67139e-05
8.10588e-05
0.000457256
-0.00090111
-0.000491603
0.00319399
-0.780843
1.11245
0.6085
0.268991
-0.0325661
-0.2016
-0.162367
-0.0310218
0.0814422
0.183557
0.12155
0.0325645
-0.0423861
-0.0379979
0.0894574
0.225078
0.311139
0.318516
0.239575
0.112551
-0.0159916
-0.1063
-0.150526
-0.148555
-0.114956
-0.0669425
-0.0278496
-0.00183067
0.0147456
0.050852
0.0749314
0.0726778
0.0454825
-0.00410631
-0.0430174
3.6131e-16
8.03265e-14
-9.01574e-14
-5.3172e-13
1.70208e-13
4.16091e-13
-2.76542e-14
-3.43701e-13
6.2191e-13
-4.04627e-13
-7.37665e-14
4.90725e-15
4.48461e-15
7.63862e-14
-5.24932e-13
1.9891e-12
1.86236e-12
-1.20723e-12
-2.00755e-12
4.03316e-12
-1.7224e-11
-8.12654e-11
-3.28082e-10
-1.40811e-09
-5.51727e-09
-2.17293e-08
-8.51917e-08
-3.34461e-07
-1.16676e-06
-3.15282e-06
5.83173e-07
1.24201e-05
8.98311e-05
7.62866e-05
-0.000158533
-0.0007491
0.00111599
-0.25621
1.1849
0.526148
0.120389
-0.122024
-0.283555
-0.150188
-0.0130048
0.126244
0.269493
0.213614
0.114841
0.0156944
0.00233974
0.0846417
0.180977
0.247727
0.256675
0.199294
0.0982158
-0.00585022
-0.0838485
-0.128227
-0.128423
-0.0984918
-0.0540708
-0.0180243
0.00590987
0.0186165
0.0466158
0.0634729
0.056914
0.0285373
-0.0185986
-0.0501239
8.92743e-14
-1.34214e-13
4.22989e-13
-2.5276e-13
-4.48901e-13
-4.38259e-13
-2.50534e-13
7.9097e-13
1.19642e-12
-4.79416e-13
-7.98561e-13
-3.73373e-13
2.49091e-13
3.69557e-13
1.739e-12
-5.10178e-13
-9.70884e-13
1.11497e-12
2.30086e-12
-6.74306e-12
-1.47396e-11
7.40052e-13
-2.70637e-10
-1.32621e-09
-5.62488e-09
-2.35001e-08
-9.07959e-08
-3.16752e-07
-8.40998e-07
-2.0915e-06
2.84175e-06
4.30902e-05
8.93682e-05
-4.46373e-05
-0.00192492
0.00292572
0.000412156
-0.320623
1.57495
0.41049
-0.271386
-0.494319
-0.442422
-0.151268
0.0961172
0.304949
0.407866
0.302362
0.170843
0.0431902
0.0028329
0.0546421
0.12832
0.182778
0.20196
0.16988
0.0955295
0.0121607
-0.0565309
-0.103219
-0.107858
-0.0812295
-0.0392371
-0.0073599
0.0126025
0.0180067
0.0343874
0.0437168
0.0359477
0.0113233
-0.0264956
-0.0463942
2.59355e-14
-5.86383e-14
1.77616e-13
1.75103e-14
-3.64102e-13
6.68682e-14
-2.73906e-13
2.66723e-13
-3.91479e-13
-4.4907e-13
-6.2502e-15
9.64899e-13
1.73315e-13
-3.35911e-13
1.88404e-13
-4.0305e-13
3.48287e-13
-1.91286e-12
-2.83308e-12
5.47794e-12
3.42415e-12
-3.13881e-11
-2.01478e-10
-1.14467e-09
-5.52018e-09
-2.35572e-08
-9.09458e-08
-1.61803e-07
-8.34461e-07
-4.79973e-07
6.0326e-06
2.50272e-05
0.000145878
-8.64763e-05
-0.00122627
0.0118339
-0.00290423
0.327207
0.317715
-0.471954
-0.728694
-0.502845
-0.162223
0.141875
0.269979
0.430834
0.419638
0.305876
0.127715
-0.00953837
-0.0493886
-0.0132705
0.0613576
0.133971
0.174124
0.152589
0.0943152
0.0287277
-0.0365758
-0.0804688
-0.0866995
-0.0628616
-0.0238689
0.00149499
0.0158481
0.0116709
0.0157434
0.019052
0.013244
-0.00364567
-0.0280343
-0.0343394
9.67124e-14
-3.62215e-14
8.58525e-14
7.78513e-14
-2.14246e-13
-3.03197e-13
4.99008e-14
5.22489e-13
-8.1825e-14
-1.38622e-13
2.28222e-13
2.85078e-13
-1.46498e-13
7.86373e-14
4.78542e-13
-1.79984e-13
2.36215e-13
-2.6509e-12
1.32825e-12
6.87806e-13
-8.49135e-12
-1.91163e-11
-9.88682e-11
-8.30754e-10
-4.48545e-09
-1.86152e-08
-4.7772e-08
-1.04238e-07
-4.57722e-07
-8.15023e-08
3.86698e-06
1.80792e-05
7.07598e-05
-0.000195169
-0.000898953
0.00958632
-0.0214408
0.920184
-1.58848
-0.805184
-0.492023
-0.18986
0.344233
0.531819
0.516544
0.392355
0.296266
0.0908779
-0.0943889
-0.159404
-0.121232
-0.0455183
0.0522846
0.132775
0.163394
0.152164
0.109567
0.0457951
-0.0275603
-0.0618365
-0.0667145
-0.0410853
-0.00863075
0.0093819
0.0139399
-8.70756e-05
-0.00669177
-0.0064453
-0.00720947
-0.0141096
-0.0243551
-0.0173553
-1.37651e-14
1.17219e-14
-1.5271e-13
-5.24625e-14
-1.60432e-13
1.40068e-13
2.72026e-13
-1.5825e-13
-2.30874e-13
-8.4068e-13
-5.37754e-14
4.27255e-13
2.34849e-13
1.42697e-12
-6.76545e-14
-4.96522e-13
5.9465e-14
-6.7734e-13
-2.06325e-12
3.40049e-12
7.45463e-12
-1.84551e-11
-3.8212e-11
-5.41407e-10
-2.7859e-09
-1.00649e-08
-1.89355e-08
-7.79465e-09
-1.85731e-07
5.08457e-07
4.11782e-06
-1.11707e-06
8.59993e-05
-0.000306922
2.9341e-05
-0.000167329
-0.00610154
0.62713
-1.63518
-0.273334
0.0350218
0.492417
0.52078
0.352219
0.153955
0.0069459
-0.136722
-0.353468
-0.287876
-0.13426
-0.00406942
0.0825542
0.160736
0.214706
0.215554
0.177165
0.110421
0.0346548
-0.0238796
-0.0464689
-0.0473131
-0.0185106
0.00524135
0.0136747
0.00793184
-0.0146916
-0.0294439
-0.0290093
-0.0228158
-0.0192831
-0.016935
0.00134911
7.62624e-14
-2.07931e-13
-1.33172e-13
3.03858e-13
9.24899e-14
-5.79178e-14
-6.59502e-14
1.35229e-13
-1.00886e-14
-8.0155e-14
-2.38696e-13
-7.94125e-13
6.13223e-13
7.99043e-13
-1.61867e-13
-6.44541e-14
-8.18111e-13
1.53076e-12
3.84352e-13
-2.31468e-12
9.17447e-12
-2.33863e-11
-3.02869e-11
-3.6994e-10
-2.09253e-09
-6.26636e-09
-1.23774e-08
5.60904e-09
-2.5859e-08
5.81061e-07
3.87016e-06
1.80246e-05
2.26101e-05
-6.66353e-05
-9.39784e-05
-0.00036764
0.00414746
0.67049
-0.0324957
0.49403
0.385565
0.417192
0.122608
-0.14153
-0.351578
-0.365908
-0.368792
-0.241009
-0.0743936
0.0442239
0.151544
0.207674
0.194637
0.176807
0.158547
0.12907
0.0809331
0.0197645
-0.0282347
-0.0420498
-0.0328873
-0.00345495
0.0145205
0.0158704
0.000243405
-0.030013
-0.0493112
-0.0471281
-0.0324877
-0.0195988
-0.00739952
0.0194289
5.16827e-16
4.87348e-14
2.1031e-14
1.56723e-13
2.30674e-13
1.47948e-13
-4.39812e-13
-2.94909e-13
-2.29212e-13
6.04058e-14
-1.08526e-13
-5.79381e-14
2.18813e-13
4.38852e-13
-6.76898e-14
1.3617e-13
1.3735e-12
-1.98629e-12
-1.01706e-12
1.43974e-12
1.06791e-11
-1.52577e-11
-3.92254e-11
-2.56753e-10
-1.50867e-09
-5.85852e-09
-1.33082e-08
-2.90869e-08
-8.23533e-08
-3.04986e-07
1.0987e-06
1.2166e-05
3.12478e-05
5.00973e-05
-0.000521517
-0.00150598
0.0117367
0.306038
0.410751
-0.0839349
-0.00234386
-0.0676512
-0.370754
-0.439654
-0.446662
-0.327213
-0.255305
-0.0646037
0.22615
0.424615
0.373479
0.239554
0.137366
0.0875469
0.075831
0.0459144
0.000690923
-0.0360358
-0.052272
-0.0438915
-0.023031
0.00137102
0.0163015
0.0115549
-0.0103528
-0.0441987
-0.064861
-0.0599227
-0.0362875
-0.0159327
0.00306109
0.0356615
-2.82603e-15
2.26873e-14
4.36618e-14
1.92394e-13
3.362e-13
-6.6795e-13
-3.9453e-13
-2.64033e-13
9.49075e-13
-8.61755e-13
3.62177e-13
4.45513e-13
-5.52589e-13
-3.48355e-13
9.65795e-13
3.68576e-13
1.29227e-12
-1.3023e-12
-3.38237e-12
3.30799e-12
-5.8049e-12
-1.70238e-12
-2.34082e-11
-2.34203e-10
-1.143e-09
-4.54159e-09
-1.54706e-08
-4.85794e-08
-1.37975e-07
-5.87876e-07
-7.3796e-07
3.79541e-06
2.77327e-05
0.000113311
-7.10141e-05
-0.00157034
-0.00152339
0.0965776
0.428314
-0.363408
-0.103364
-0.0749475
-0.355964
-0.396283
-0.338222
-0.14422
0.105345
0.397669
0.421818
0.338181
0.191151
0.0239813
-0.0549592
-0.0673755
-0.0436579
-0.0528246
-0.0498546
-0.0443236
-0.0484631
-0.0380788
-0.0169167
0.00282145
0.014723
0.00348297
-0.0227176
-0.0570263
-0.0766658
-0.0680407
-0.0354424
-0.00973551
0.0130849
0.0500106
2.73413e-15
-2.99942e-13
8.24193e-14
-5.30171e-15
2.04921e-13
9.00066e-13
-1.13135e-12
-8.28471e-13
4.44877e-13
4.1698e-13
2.58608e-13
2.47433e-13
6.63574e-13
-2.45331e-12
8.61623e-13
1.06178e-12
-2.39138e-13
-3.0305e-13
9.33003e-13
-1.25511e-12
1.02137e-11
1.34557e-11
-7.03291e-11
-2.0817e-10
-8.1432e-10
-3.411e-09
-1.30982e-08
-4.7773e-08
-1.73281e-07
-4.34224e-07
-1.32246e-06
8.63589e-07
2.2799e-05
7.26168e-05
8.16905e-05
-0.000723089
-0.00251567
0.00689837
0.428795
0.112336
-0.056952
-0.0723725
-0.141232
-0.207621
-0.108279
-0.0108361
0.322355
0.520243
0.35564
0.224359
0.0165979
-0.181882
-0.191508
-0.131318
-0.122535
-0.0544273
-0.0164595
-0.032174
-0.029475
-0.00698712
0.0139229
0.0220228
0.0146024
-0.00698158
-0.0347273
-0.0678173
-0.0851565
-0.0715035
-0.032307
-0.00303036
0.0219338
0.0631148
1.51043e-15
-4.88915e-14
2.37286e-14
3.32457e-13
-2.46238e-13
-1.50941e-13
1.22226e-13
-8.31056e-14
2.54854e-13
2.05015e-13
-6.25554e-14
-6.07409e-14
3.04857e-13
-3.82537e-13
-2.86245e-13
3.69487e-13
9.3675e-13
-1.2149e-13
-9.18196e-14
-2.12012e-12
2.9028e-12
-1.11907e-11
-3.78902e-11
-1.26404e-10
-6.35115e-10
-2.73121e-09
-1.10594e-08
-4.26803e-08
-1.5558e-07
-4.21238e-07
-1.13729e-06
4.89505e-07
1.88687e-05
5.34952e-05
4.77782e-05
-0.000563524
0.000651215
-0.00292433
0.193848
-0.143514
-0.0934892
-0.0458167
-0.0454774
-0.0842548
-0.0562984
-0.0171849
0.107013
0.373428
0.263033
0.111008
-0.137591
-0.432379
-0.310503
-0.149989
-0.0985465
-0.0144248
0.0001858
0.00218644
0.020498
0.0525647
0.0587423
0.0382251
0.00875667
-0.017831
-0.0457874
-0.0788041
-0.0906829
-0.0719828
-0.0273048
0.00411384
0.0295826
0.0737184
2.1247e-14
-7.89641e-14
-3.63495e-13
1.56855e-13
1.62443e-13
3.26733e-14
4.765e-14
-2.30512e-13
-4.09621e-13
-2.24622e-13
6.314e-13
4.34447e-13
-1.03595e-13
-8.30157e-13
1.11274e-12
-2.09731e-13
-5.4857e-13
-1.13621e-12
-1.46525e-12
6.2612e-14
-3.26066e-13
-7.57787e-13
8.62412e-13
-1.1583e-10
-4.33527e-10
-1.94683e-09
-8.20873e-09
-3.32237e-08
-1.20958e-07
-2.68228e-07
-6.2262e-07
1.51079e-06
2.29016e-05
3.46177e-05
-5.56246e-06
-0.000555243
0.000636265
0.000914806
0.352825
-0.291033
-0.119024
-0.0099553
0.023431
0.0435436
-0.0286537
0.0173092
0.143406
0.275231
0.169911
-0.0108523
-0.297687
-0.524382
-0.38966
-0.17744
-0.0708969
0.0936031
0.101921
0.0542129
0.0676019
0.0862647
0.0629201
0.0317894
-0.00121764
-0.0279931
-0.0626976
-0.0900785
-0.0930403
-0.0711407
-0.0272188
0.0114153
0.0401713
0.079909
2.6939e-15
-1.98806e-13
-5.76902e-14
8.81818e-14
2.98206e-13
9.87447e-14
-7.63363e-14
-1.44213e-13
-1.37784e-13
1.15226e-13
1.4815e-13
2.43967e-14
1.05898e-13
2.74203e-13
-2.99377e-13
-6.45788e-13
1.10784e-12
-2.77863e-13
-2.42592e-13
2.06537e-12
2.46987e-13
-6.70922e-12
3.55325e-12
-4.16525e-11
-1.24074e-10
-8.11083e-10
-3.70145e-09
-1.44675e-08
-4.44446e-08
-5.1546e-08
8.78427e-08
2.01e-06
1.13484e-05
1.94679e-05
-3.44487e-05
-0.000235854
0.00134584
0.000686242
0.343357
-0.0400228
-0.104793
-0.0641115
-0.0405669
0.0583026
0.0445977
0.0325655
0.107754
0.111432
0.0735869
-0.0122006
-0.0997224
-0.417094
-0.218255
-0.116442
0.166931
0.304343
0.14929
0.0861285
0.0657515
0.0590156
0.0684048
0.0397008
-0.0143903
-0.047176
-0.0841359
-0.101499
-0.100226
-0.0720515
-0.0245161
0.0215511
0.049762
0.0927174
-4.76067e-15
5.80284e-15
2.56412e-13
-2.31471e-13
-1.99858e-13
-6.24211e-15
-2.31592e-13
-2.10314e-13
1.49943e-12
2.87589e-13
-2.28025e-13
-7.28553e-13
-6.84957e-13
5.29925e-13
6.38176e-13
-6.30709e-14
3.50817e-13
-3.84481e-13
-2.8713e-13
1.84348e-12
-3.87227e-12
-3.67774e-12
1.01299e-11
4.62945e-11
1.6102e-10
6.01859e-10
2.5656e-09
1.30996e-08
7.51127e-08
1.99516e-07
7.29381e-07
1.707e-06
-4.13325e-06
-4.16746e-06
-5.67545e-05
0.000137988
0.00113106
-0.0045433
0.493063
-0.149692
-0.136188
-0.117646
-0.0340072
0.0909288
0.0259769
-0.0590434
-0.0250495
0.0672774
-0.00891174
-0.0510107
-0.120967
-0.277267
-0.138334
0.0566188
0.291984
0.408351
0.160712
0.0595174
0.0244921
0.0443575
0.0605338
0.0342456
-0.0242169
-0.0761868
-0.107313
-0.114939
-0.105424
-0.0713063
-0.0280546
0.0161504
0.0527234
0.0675532
-9.31232e-15
7.78194e-14
1.37594e-13
1.20902e-13
4.40017e-14
-2.02423e-13
-3.15751e-13
-3.37058e-13
2.3447e-13
6.71946e-13
-1.69359e-13
-1.80188e-13
9.62176e-13
-6.00519e-13
-5.76889e-13
-5.65596e-13
-1.02801e-13
1.39426e-13
-4.06311e-13
1.13586e-12
4.52691e-12
9.8879e-12
2.45271e-12
7.26317e-11
3.96307e-10
1.56897e-09
6.82746e-09
3.06108e-08
1.27874e-07
3.96128e-07
1.10384e-06
1.2377e-06
-1.29517e-05
-2.16768e-05
-3.07638e-05
0.000545019
-0.00285168
0.00414762
1.16058
-0.618526
-0.244869
-0.0620026
0.0954929
0.0876481
0.0107189
-0.0539853
-0.0784357
-0.0715681
-0.0685291
-0.113065
-0.0844574
-0.159024
-0.161257
0.0216504
0.29272
0.413855
0.176098
0.0298709
-0.059376
-0.0539061
-0.0052093
-0.0111035
-0.0623426
-0.105928
-0.127574
-0.126834
-0.107479
-0.0680708
-0.0233916
0.025494
0.0633239
0.0691785
5.61059e-15
2.47544e-13
-2.43136e-13
-1.72202e-13
4.61413e-14
2.18433e-13
2.07486e-13
1.87566e-13
-6.28464e-13
-2.99695e-13
9.45383e-14
1.0562e-13
8.49252e-14
-7.87226e-13
1.02516e-12
-1.22823e-13
-7.68366e-14
4.38209e-13
-1.39906e-12
2.43985e-13
2.9147e-12
1.17368e-11
5.78516e-12
1.05155e-10
4.56338e-10
1.92386e-09
8.01863e-09
3.56322e-08
1.35712e-07
4.62484e-07
1.31448e-06
2.05173e-06
-4.57235e-06
-4.60155e-05
-8.08432e-05
0.000386401
0.00115678
-0.00299412
0.205657
0.0803281
0.0641523
0.0689325
0.109097
0.184664
0.0796389
-0.0545259
-0.111687
-0.156708
-0.0594409
-0.111761
-0.0507686
-0.0250215
-0.00530675
0.0931579
0.16942
0.319183
0.123601
-0.0517285
-0.152059
-0.194178
-0.126113
-0.114618
-0.133194
-0.144605
-0.145885
-0.134201
-0.106267
-0.057454
-0.017805
0.0331077
0.0820546
0.0827631
1.42941e-14
2.02597e-13
-9.84846e-15
1.17989e-13
-1.54788e-13
-3.95829e-13
4.98667e-14
1.72126e-13
9.41157e-13
-1.99652e-13
-4.37873e-13
5.10181e-14
-1.78863e-13
8.29239e-14
-2.43907e-14
-1.12086e-12
-1.64864e-13
3.72112e-13
5.17606e-13
4.58539e-13
-2.39256e-12
7.2857e-12
1.27069e-11
1.08577e-10
4.12855e-10
1.6927e-09
7.17739e-09
3.03024e-08
1.139e-07
4.09664e-07
1.23156e-06
2.44327e-06
-1.39718e-06
-3.7601e-05
-0.000106221
6.39176e-06
0.00116858
-0.000973004
0.0161763
0.174264
0.116369
0.0991335
0.0739561
0.192
0.0836296
-0.0409167
-0.142562
-0.0967407
0.019024
0.0806898
0.0559379
0.00176241
-0.0173506
0.104516
0.149132
0.280117
0.0712993
-0.120235
-0.267106
-0.365601
-0.257439
-0.172991
-0.172041
-0.172438
-0.156383
-0.131342
-0.0985478
-0.0530976
-0.00609486
0.049638
0.0933589
0.091188
-7.55148e-14
1.1129e-14
4.41951e-13
1.06604e-14
-2.76782e-13
1.72176e-14
-8.69793e-14
1.04896e-13
-9.84685e-14
-4.12768e-13
9.50396e-14
3.81943e-13
4.20264e-13
3.17718e-13
-2.51929e-13
-5.48407e-13
6.43753e-13
-3.74035e-13
-1.77321e-13
5.77693e-13
-8.95478e-13
7.71639e-13
1.40616e-11
7.77864e-11
3.36834e-10
1.3524e-09
5.59738e-09
2.24962e-08
8.81696e-08
3.22644e-07
9.95181e-07
2.06214e-06
-2.26676e-07
-2.61841e-05
-8.1625e-05
-7.62527e-06
0.000970545
-0.000848748
-0.00128781
0.0785707
0.230078
0.137843
0.106273
0.221887
0.0981955
-0.00330853
-0.134674
-0.133387
-0.121951
-0.120403
-0.0781009
0.00124942
0.0542409
0.0338939
0.0744022
0.268425
0.120208
-0.0637561
-0.298421
-0.436787
-0.391148
-0.270001
-0.216783
-0.171047
-0.134749
-0.10454
-0.0807287
-0.0297351
0.00660036
0.0628334
0.0961898
0.0800995
-3.05748e-14
-4.27589e-14
9.42327e-14
3.11139e-14
-4.89124e-13
1.86143e-13
4.48182e-14
3.33781e-13
4.0601e-13
-3.99083e-13
-5.17392e-13
-3.04741e-13
6.81022e-13
5.64906e-13
-5.61671e-13
1.11477e-13
-6.51866e-13
5.35328e-13
-1.35997e-14
-1.30044e-12
2.78183e-13
3.35411e-12
1.31718e-11
5.27501e-11
2.036e-10
9.73385e-10
4.11044e-09
1.65645e-08
6.45558e-08
2.36532e-07
7.36342e-07
1.45699e-06
-2.89782e-07
-1.49956e-05
-4.26699e-05
1.89037e-05
0.000416579
-0.00194877
0.00489096
0.0103191
0.145882
0.121277
0.120851
0.189675
0.173565
0.0686505
-0.114173
-0.0998266
-0.127882
-0.1177
-0.0833887
-0.0823151
-0.0013952
0.0654167
0.0266891
0.201848
0.163076
0.060701
-0.182839
-0.33759
-0.392624
-0.332112
-0.266748
-0.192456
-0.124701
-0.0690198
-0.0424558
-0.000133993
0.0271903
0.0714115
0.10448
0.06926
-3.30921e-15
2.77283e-14
1.63362e-13
1.60502e-13
-4.73577e-13
-8.22934e-13
-2.66927e-13
1.49525e-12
3.41896e-13
-1.00643e-12
-8.7845e-14
7.20366e-13
3.81446e-14
-7.49865e-13
2.1306e-13
7.56212e-13
-2.91071e-13
-7.59889e-13
1.87576e-13
-4.51306e-13
2.7441e-12
1.38294e-12
6.12362e-12
3.86904e-11
1.35692e-10
6.01898e-10
2.61706e-09
1.07208e-08
4.23898e-08
1.52704e-07
4.52388e-07
8.05265e-07
-1.84903e-07
-1.02641e-05
-2.83352e-05
2.87672e-05
0.000284701
-0.00160801
0.00337475
0.00778261
0.194777
0.146459
0.17569
0.200374
0.147988
0.0476936
-0.0244177
-0.081559
-0.0946296
-0.0858926
-0.106001
-0.0896894
0.0291241
0.0729464
0.0767421
0.124588
0.204573
0.168677
-0.0476688
-0.171891
-0.265001
-0.282702
-0.245337
-0.196915
-0.114703
0.0261578
-0.0215988
0.0208913
0.0595426
0.0806573
0.108749
0.0897474
4.36333e-16
-9.94715e-14
-1.13339e-13
2.01381e-13
6.85295e-14
-7.04069e-13
4.36793e-13
3.79071e-15
1.48269e-14
8.27497e-13
-1.1561e-13
-5.31351e-13
-4.27856e-13
3.72777e-14
-4.45155e-13
6.16849e-13
2.47396e-13
-2.73721e-13
2.52358e-13
5.36097e-14
2.44747e-12
3.91522e-13
3.57789e-12
1.8752e-11
7.43841e-11
3.26413e-10
1.33371e-09
5.66244e-09
2.29395e-08
7.96741e-08
2.13953e-07
4.32224e-07
6.50207e-08
-3.53668e-06
-1.4079e-05
2.02638e-05
0.000113581
-0.000591232
0.000529594
-0.0363073
0.0929371
0.13942
0.147195
0.196342
0.195135
0.154355
0.0373848
0.0589199
0.00758991
-0.0433618
-0.0850672
-0.106683
0.0387826
0.158358
0.159214
0.194999
0.333749
0.273252
0.137711
-0.038631
-0.131491
-0.196443
-0.180131
-0.150608
-0.0943517
0.0646492
0.0320743
0.0525538
0.0798836
0.0890577
0.110627
0.102193
4.53109e-14
-4.99651e-15
7.26629e-14
-5.81437e-14
6.71413e-13
-1.13807e-13
-7.22923e-13
-9.28649e-13
4.84417e-13
7.67584e-13
4.11728e-13
2.68326e-13
6.76274e-13
-1.33845e-12
-1.65995e-13
-1.01836e-13
4.58566e-13
5.09189e-13
-1.14875e-13
4.56087e-13
-1.47866e-13
1.83184e-12
3.54132e-12
7.59672e-12
4.27113e-11
7.20041e-11
4.10296e-10
1.86688e-09
7.61206e-09
2.50543e-08
5.52362e-08
3.38552e-08
-7.33023e-08
-1.284e-06
-3.78842e-06
1.22515e-05
2.68561e-05
-0.00040945
0.00086348
-0.00840407
0.0893944
0.0119516
0.108431
0.152616
0.173633
0.157578
0.152018
0.068199
0.0697041
-0.0148418
-0.0732845
-0.130829
0.0190559
0.185684
0.260073
0.337104
0.378389
0.454255
0.241957
0.0953118
-0.00258993
-0.198452
-0.136125
-0.0983944
-0.0397806
0.0785021
0.0791851
0.0857808
0.101433
0.101448
0.103963
0.0980365
-1.00588e-14
7.47822e-14
-5.93079e-14
-2.61578e-13
-3.86261e-13
1.56656e-13
6.84539e-13
2.45438e-13
-4.40309e-13
-5.78573e-13
-4.58397e-13
1.10003e-15
1.59549e-13
1.23714e-12
9.60445e-13
6.88957e-13
-2.07934e-12
-1.11918e-12
-2.32685e-13
2.70282e-13
-8.23718e-13
-8.62508e-13
3.43646e-12
1.54827e-11
9.5221e-12
-7.66252e-11
-2.07908e-10
-6.49732e-10
-2.13809e-09
-1.07793e-08
-5.94045e-08
-2.73417e-07
-5.24728e-07
-4.34705e-08
8.9522e-06
1.90109e-05
-1.64452e-05
-0.000441059
0.00104881
0.00147018
0.106853
0.041164
0.0900456
0.129815
0.149703
0.142388
0.0961438
0.0242816
0.00069976
-0.0341675
-0.063039
-0.186783
0.0110917
0.15561
0.29962
0.390225
0.450649
0.408202
0.385072
0.137903
0.0351665
-0.0907389
-0.124584
-0.0966663
-0.000265016
0.0983323
0.110627
0.118081
0.117119
0.106218
0.0956214
0.0865458
9.83515e-14
4.30512e-14
-2.69293e-13
-2.1025e-14
6.25237e-13
3.55484e-14
-2.49129e-13
-8.14668e-14
-1.66647e-13
2.98121e-13
2.34454e-13
-5.36204e-13
-2.55982e-13
-8.22481e-14
3.17999e-13
-3.13866e-13
-3.59582e-13
-5.11499e-13
4.56751e-13
1.67872e-12
-5.4114e-13
-1.81534e-12
1.04955e-11
9.52871e-12
-4.89151e-11
-7.28369e-11
-3.89029e-10
-1.6252e-09
-6.15512e-09
-2.43263e-08
-1.01349e-07
-3.98357e-07
-7.93261e-07
-5.1853e-07
8.25287e-06
2.50164e-05
-1.51382e-07
-0.00041141
0.000804659
0.000474158
0.132247
-0.148306
0.0278413
0.0506587
0.1074
0.089631
0.0675078
0.0348471
0.0264563
-0.00162312
-0.0494807
-0.134433
0.00799225
0.111386
0.278975
0.36165
0.414819
0.413364
0.414409
0.0609248
0.0287909
-0.033467
-0.0948679
-0.0823361
0.00627875
0.0982063
0.130791
0.137251
0.12799
0.110514
0.0909892
0.0738648
-8.34342e-14
-1.75471e-13
4.94009e-13
4.2689e-14
1.11557e-13
-1.07416e-13
-4.22902e-13
-3.23325e-13
3.66485e-13
7.91544e-14
1.92618e-13
-4.2927e-13
1.93722e-13
-1.52715e-13
-9.00766e-14
8.21848e-15
-1.80342e-13
-3.43342e-14
6.07134e-13
-6.31113e-13
3.48553e-13
1.63583e-12
6.73527e-12
-3.43463e-12
-3.20921e-11
-6.23213e-11
-4.76579e-10
-1.75182e-09
-6.54371e-09
-2.55892e-08
-1.00356e-07
-3.643e-07
-1.00129e-06
-1.30257e-06
3.68391e-06
2.6602e-05
2.95375e-05
-0.000289446
-0.000183077
0.00106018
0.166235
0.119809
0.0491665
0.0747404
0.0984602
0.0271436
0.019423
0.0157463
0.0202398
0.0155707
-0.0144568
-0.0578358
0.00453072
0.0786521
0.246355
0.31244
0.351694
0.339639
0.220718
0.151164
0.0127749
-0.0438114
-0.0174637
0.025017
0.0282625
0.0622326
0.104902
0.137764
0.131211
0.109388
0.0838376
0.061529
-2.20497e-14
-4.5454e-14
-1.3032e-13
5.99416e-14
1.94927e-13
1.05234e-13
-6.79144e-14
7.24987e-14
3.68184e-13
7.95914e-14
-8.15887e-13
-1.98922e-13
-1.62466e-13
-1.14043e-13
-1.17673e-13
3.95485e-13
5.11727e-13
-3.53979e-13
2.28872e-13
-8.34352e-14
-9.00439e-13
2.67862e-12
4.90304e-12
-4.35507e-12
-3.68637e-11
-4.42372e-11
-3.30513e-10
-1.56526e-09
-5.67853e-09
-2.14814e-08
-8.3191e-08
-3.09663e-07
-9.61923e-07
-1.73428e-06
6.74287e-07
2.33393e-05
5.07477e-05
-6.82435e-05
-0.00069851
0.00132601
0.0297853
0.216473
0.0644926
0.0802758
0.0127548
-0.00253953
-0.0347583
-0.0386869
-0.0218476
0.0012832
0.0116204
0.00271805
-0.00742981
0.0866445
0.185834
0.238441
0.279541
0.262428
0.178399
0.0998204
-0.00501631
-0.0565003
-0.0360566
-0.0538641
0.0014941
0.0724438
0.118366
0.1292
0.130107
0.110564
0.0821017
0.0566689
-2.75566e-15
7.6492e-14
-3.51545e-14
1.43419e-14
-3.33759e-13
2.98232e-14
2.61343e-13
1.9224e-15
-2.45778e-13
5.93299e-13
-5.87635e-13
-3.37626e-13
8.93966e-13
1.72092e-13
-3.84698e-13
-7.04067e-13
1.14475e-13
2.22616e-13
-6.64749e-14
-4.18186e-14
1.51216e-12
-2.33598e-13
-2.50102e-13
1.16606e-11
1.26103e-12
-7.49402e-11
-3.04824e-10
-1.26117e-09
-4.61296e-09
-1.73814e-08
-6.71846e-08
-2.53248e-07
-8.36283e-07
-1.78946e-06
-1.21531e-06
1.41458e-05
4.58593e-05
1.75165e-05
-0.000550114
0.00063694
0.00270502
0.158838
0.146244
0.0802317
0.0072694
0.00320137
-0.0362644
-0.0679001
-0.0665719
-0.0215878
0.0116456
0.0234504
0.0393338
0.034589
0.131916
0.177367
0.190786
0.208466
0.139974
0.0525761
0.051033
-0.0788702
-0.108543
-0.0687201
-0.0295502
0.0280734
0.0757248
0.105425
0.113774
0.0989842
0.0830813
0.0524804
1.86781e-15
-9.93685e-14
-1.19643e-13
-1.97697e-13
4.33721e-13
7.77994e-13
-3.74008e-14
-6.24024e-13
-2.37263e-13
-1.00015e-13
-1.05201e-13
-1.36156e-13
8.86898e-14
2.9197e-13
3.52262e-14
-3.87135e-13
2.01917e-13
2.6419e-13
5.8514e-13
-9.54689e-13
-2.29437e-12
1.3152e-12
1.31947e-11
1.32629e-12
-3.23102e-11
-6.49179e-11
-2.03828e-10
-9.04873e-10
-3.66543e-09
-1.40588e-08
-5.43694e-08
-2.06324e-07
-7.38367e-07
-1.78518e-06
-2.42005e-06
6.39576e-06
4.46469e-05
6.15684e-05
-0.00035022
0.000305195
0.000212358
0.124969
0.0111008
0.0171748
0.00281409
0.0637677
-0.0695153
-0.0760589
-0.089025
-0.0676871
-0.030088
0.00878327
0.0258886
0.0531286
0.0512734
0.11565
0.144028
0.147832
0.108318
0.0548781
0.00494436
-0.0821212
-0.0917868
-0.0602726
-0.0218934
0.0109322
0.0457898
0.076359
0.0919039
0.0906641
0.0771151
0.0437836
1.31973e-13
-1.48548e-13
9.19286e-14
3.15172e-13
-4.57345e-13
-1.31148e-13
2.35247e-13
2.01935e-13
-1.77811e-13
-2.95005e-13
-7.33769e-14
6.78149e-13
-5.44342e-13
-7.33562e-13
5.35887e-13
1.01892e-13
1.60297e-13
5.83312e-13
6.30553e-13
-4.98993e-14
-8.63307e-13
-3.31924e-12
3.43224e-13
1.14681e-11
5.15648e-12
-4.47368e-11
-1.52429e-10
-7.83395e-10
-2.97107e-09
-1.14951e-08
-4.50666e-08
-1.73991e-07
-6.34638e-07
-1.69145e-06
-2.91779e-06
4.21789e-06
4.87569e-05
0.000103619
-0.000242799
-0.000913089
0.00285265
0.14877
0.50715
0.0731678
-0.0408884
0.0292102
-0.0406745
-0.0649871
-0.100874
-0.107171
-0.080657
-0.0352509
-0.00431305
0.00765653
0.0366122
0.0384188
0.0840335
0.100796
0.0889718
0.0517964
-0.00981221
-0.0762809
-0.0918074
-0.0750677
-0.0327898
-0.0016095
0.025894
0.0468351
0.0583376
0.0611801
0.0520195
0.0293978
-9.84727e-15
-1.44001e-13
5.25084e-14
3.42189e-13
9.82397e-14
-2.14519e-13
-3.93554e-13
-4.02401e-13
2.77533e-14
4.13556e-13
2.14759e-13
3.45033e-15
-2.68398e-13
-1.22863e-12
-2.85339e-13