/*--------------------------------*- C++ -*----------------------------------*\
  =========                 |
  \\      /  F ield         | OpenFOAM: The Open Source CFD Toolbox
   \\    /   O peration     | Website:  https://openfoam.org
    \\  /    A nd           | Version:  13
     \\/     M anipulation  |
\*---------------------------------------------------------------------------*/
FoamFile
{
    format      ascii;
    class       volVectorField;
    location    "4";
    object      CrankNicolson:ddt0(rhoU);
}
// * * * * * * * * * * * * * * * * * * * * * * * * * * * * * * * * * * * * * //

dimensions      [1 -2 -2 0 0 0 0];

internalField   nonuniform List<vector> 
36576
(
(-8.38444e-14 2.31937e-14 0)
(2.09569e-14 -1.8336e-14 0)
(-5.00574e-13 -3.38874e-14 0)
(4.02865e-13 3.56432e-14 0)
(1.728e-13 6.03124e-14 0)
(9.89078e-13 9.91087e-14 0)
(-5.9253e-13 4.47061e-14 0)
(-1.04548e-12 -2.99299e-15 0)
(-5.65616e-13 2.88371e-14 0)
(1.55344e-12 -8.30193e-15 0)
(-2.4067e-13 -7.68567e-14 0)
(2.5301e-13 -6.93018e-14 0)
(-2.35718e-13 -2.18149e-13 0)
(-9.09746e-13 3.7845e-15 0)
(-3.82535e-13 3.22307e-14 0)
(4.42914e-12 1.15765e-13 0)
(2.30736e-12 1.95942e-13 0)
(-6.11636e-12 2.53281e-14 0)
(2.0072e-12 -2.04987e-13 0)
(8.04014e-12 -2.09061e-13 0)
(3.07023e-11 1.64761e-12 0)
(-8.37684e-12 2.67678e-12 0)
(1.19797e-10 1.09404e-11 0)
(4.47687e-10 5.88647e-11 0)
(3.09946e-09 2.48808e-10 0)
(1.61412e-08 9.38587e-10 0)
(6.68052e-08 3.93499e-09 0)
(2.44263e-07 1.78225e-08 0)
(5.21652e-07 7.14081e-08 0)
(-1.47093e-06 2.94448e-07 0)
(-2.15257e-05 4.68529e-07 0)
(-5.62648e-05 -4.28907e-07 0)
(-1.73929e-05 -7.27254e-07 0)
(0.00109517 6.43112e-06 0)
(0.00172843 5.53078e-05 0)
(-0.0154401 0.000328256 0)
(0.013937 -0.00234508 0)
(-9.08789 -0.702843 0)
(2.04869 -0.992813 0)
(4.15438 -0.183676 0)
(4.37886 0.349575 0)
(3.20732 0.79329 0)
(0.94724 1.09604 0)
(-1.29626 0.87065 0)
(-2.70316 0.090881 0)
(-2.92454 -0.166066 0)
(-1.97386 -0.721729 0)
(-0.213307 -1.12623 0)
(1.4062 -0.480464 0)
(1.82822 0.0500516 0)
(1.30295 0.417138 0)
(0.34222 0.571766 0)
(-0.563391 0.244758 0)
(-0.884193 0.0820019 0)
(-0.760228 -0.153851 0)
(-0.277622 -0.230315 0)
(0.138836 -0.0693839 0)
(0.257077 0.0545223 0)
(0.198734 0.0646461 0)
(0.0819685 0.0387353 0)
(-0.0129167 -0.007424 0)
(-0.061456 -0.0228195 0)
(-0.0864598 -0.00976998 0)
(-0.0963824 -0.000257117 0)
(-0.0852209 -0.000365156 0)
(-0.056048 -0.00249444 0)
(-0.00802208 -0.00189473 0)
(0.0500762 0.000318951 0)
(0.10084 0.00255151 0)
(0.135333 0.00429423 0)
(0.160789 0.00215071 0)
(0.0455176 -0.00299437 0)
(4.67141e-14 4.27889e-14 0)
(-3.24371e-13 -1.94066e-14 0)
(4.387e-13 7.50966e-14 0)
(7.68673e-13 2.19134e-15 0)
(2.91545e-12 -2.62572e-14 0)
(-1.39756e-13 1.33859e-13 0)
(-3.01581e-12 1.07497e-13 0)
(-3.04025e-12 -3.10559e-14 0)
(8.44968e-13 -4.03864e-14 0)
(2.15021e-12 6.37405e-14 0)
(-3.85777e-13 2.41008e-14 0)
(-7.98602e-13 -3.96642e-14 0)
(-1.19972e-12 -1.29584e-13 0)
(1.81614e-12 -7.4275e-14 0)
(1.70521e-12 -3.03716e-14 0)
(3.44521e-12 2.37074e-13 0)
(1.11479e-12 -9.04303e-14 0)
(-5.23896e-12 -1.96733e-13 0)
(1.25156e-12 -7.21637e-13 0)
(8.64454e-12 6.86963e-13 0)
(-1.94393e-11 -2.04916e-12 0)
(8.51026e-12 1.06892e-11 0)
(1.65622e-10 7.64506e-11 0)
(1.90619e-10 2.64539e-10 0)
(1.7665e-09 1.09313e-09 0)
(1.15753e-08 4.30585e-09 0)
(5.91124e-08 1.75293e-08 0)
(2.1795e-07 6.98487e-08 0)
(4.26775e-07 2.79376e-07 0)
(-7.29705e-07 9.22765e-07 0)
(-1.38318e-05 2.43002e-06 0)
(-6.58569e-05 -5.50088e-06 0)
(-0.000105013 -1.77401e-05 0)
(0.000410054 -6.79974e-05 0)
(0.00244359 -0.000249077 0)
(-0.00855647 -0.00188735 0)
(-0.00280675 0.00582989 0)
(-3.99432 -1.93769 0)
(-0.800343 -1.95267 0)
(0.903787 -0.725768 0)
(2.02994 0.936619 0)
(2.09151 1.54272 0)
(1.39009 2.37142 0)
(0.345154 2.26974 0)
(-0.696487 0.470752 0)
(-1.16833 -0.221487 0)
(-0.969139 -1.53825 0)
(-0.37727 -2.3861 0)
(0.292193 -1.2848 0)
(0.616997 0.138791 0)
(0.450636 0.753194 0)
(0.149514 1.15544 0)
(-0.246232 0.558397 0)
(-0.450083 0.185478 0)
(-0.383599 -0.347451 0)
(-0.150725 -0.483892 0)
(0.0691533 -0.121731 0)
(0.141628 0.141243 0)
(0.119565 0.161557 0)
(0.0573819 0.0785173 0)
(0.00180562 -0.0326667 0)
(-0.0437029 -0.0567079 0)
(-0.0842503 -0.0156184 0)
(-0.106947 0.00848943 0)
(-0.0971835 0.00175602 0)
(-0.0610428 -0.0126178 0)
(-0.0028642 -0.0186985 0)
(0.0616207 -0.0146313 0)
(0.112702 -0.00271502 0)
(0.14069 0.0125809 0)
(0.151939 0.0191087 0)
(0.0425443 0.0102337 0)
(4.12149e-13 1.27166e-14 0)
(-2.74855e-13 3.29108e-14 0)
(-6.48633e-13 6.65328e-14 0)
(-1.21741e-13 -7.28465e-15 0)
(7.97566e-13 -3.08413e-13 0)
(-3.35645e-14 2.11776e-14 0)
(9.563e-15 9.99592e-14 0)
(-4.16054e-13 4.43493e-14 0)
(4.20873e-13 -4.15574e-14 0)
(3.07308e-13 1.49761e-14 0)
(-3.08882e-13 -1.30918e-14 0)
(-1.33534e-12 9.59695e-14 0)
(2.35005e-12 2.63414e-13 0)
(1.28514e-12 -3.68315e-15 0)
(8.67279e-13 -1.5026e-13 0)
(3.65332e-12 1.17113e-13 0)
(-2.06606e-12 -2.15883e-13 0)
(-5.08662e-12 -3.72599e-14 0)
(9.59174e-12 -2.31045e-13 0)
(6.80999e-12 -1.69032e-12 0)
(-5.78589e-11 2.09285e-12 0)
(-6.01055e-11 1.76192e-11 0)
(-1.4697e-10 5.75975e-11 0)
(-9.53643e-10 3.21364e-10 0)
(-3.80518e-09 1.28747e-09 0)
(-1.2426e-08 5.9438e-09 0)
(-4.63592e-08 2.73468e-08 0)
(-1.7018e-07 9.87228e-08 0)
(-7.48696e-07 3.64656e-07 0)
(-1.60709e-06 9.59695e-07 0)
(-1.76071e-06 1.2902e-06 0)
(-5.29674e-06 -1.66481e-05 0)
(2.57982e-05 -5.02111e-05 0)
(-0.000460586 -0.00012331 0)
(0.00199627 0.00110472 0)
(0.00668838 -0.00305271 0)
(0.000218524 -0.00629453 0)
(3.93837 -1.1538 0)
(-3.28582 -1.9786 0)
(-2.75105 -1.5048 0)
(-1.47129 0.165246 0)
(-0.316579 1.40631 0)
(0.657076 2.65658 0)
(1.16183 2.90832 0)
(1.02001 0.950078 0)
(0.755063 0.0313079 0)
(0.336605 -1.55292 0)
(-0.0222263 -2.65486 0)
(-0.14104 -1.56336 0)
(-0.140837 0.117147 0)
(-0.14053 0.786651 0)
(-0.0717749 1.29134 0)
(-0.0814488 0.645279 0)
(-0.131373 0.226442 0)
(-0.0966535 -0.433584 0)
(-0.0351084 -0.562084 0)
(0.0228595 -0.0990662 0)
(0.0497692 0.205213 0)
(0.0543334 0.213069 0)
(0.0405519 0.0823849 0)
(0.0217954 -0.0669672 0)
(-0.0195638 -0.0836781 0)
(-0.0741047 -0.0192304 0)
(-0.111692 0.0145767 0)
(-0.109557 0.00449557 0)
(-0.0698284 -0.0137601 0)
(-0.000409647 -0.0200798 0)
(0.0750552 -0.0147948 0)
(0.130962 -0.00132791 0)
(0.153422 0.0160053 0)
(0.14685 0.0221007 0)
(0.0404749 0.00820637 0)
(3.10415e-13 -1.54694e-14 0)
(-5.12385e-13 4.08975e-15 0)
(-1.00603e-13 3.3644e-14 0)
(6.98096e-13 1.46282e-13 0)
(1.79609e-12 1.30536e-13 0)
(7.9196e-13 6.36695e-14 0)
(-4.33724e-12 8.88672e-14 0)
(4.51054e-13 1.66813e-14 0)
(4.23125e-13 4.32418e-14 0)
(1.24016e-12 8.55125e-14 0)
(-5.73181e-14 9.095e-14 0)
(9.43845e-13 3.50168e-14 0)
(9.91123e-13 2.63345e-13 0)
(8.35874e-13 2.39798e-13 0)
(1.97695e-12 -1.47236e-13 0)
(-3.11682e-13 -1.61776e-13 0)
(-3.69674e-12 6.0055e-14 0)
(-3.96616e-12 1.44958e-13 0)
(-3.61179e-12 -5.11292e-13 0)
(1.48585e-11 9.02293e-13 0)
(-1.23736e-12 8.70828e-12 0)
(-6.84409e-11 2.06946e-11 0)
(-7.4039e-10 6.33857e-11 0)
(-2.3001e-09 2.76953e-10 0)
(-9.0104e-09 1.15591e-09 0)
(-3.51764e-08 4.54633e-09 0)
(-1.43019e-07 2.19067e-08 0)
(-5.94335e-07 1.02207e-07 0)
(-2.09393e-06 3.50792e-07 0)
(-4.73212e-06 1.25479e-06 0)
(7.02262e-06 2.97288e-06 0)
(5.78999e-05 5.40111e-06 0)
(0.000164464 -3.25116e-05 0)
(-0.000749712 -9.73066e-05 0)
(-0.00182632 -5.0532e-05 0)
(0.0108918 0.000329323 0)
(0.00242927 -0.0046012 0)
(6.69298 1.23099 0)
(-4.14674 -1.20076 0)
(-4.00053 -1.8954 0)
(-2.83505 -1.21865 0)
(-1.43416 0.734568 0)
(-0.0960115 1.73388 0)
(1.17674 2.43822 0)
(1.76382 1.38831 0)
(1.64859 0.278458 0)
(1.08879 -0.89869 0)
(0.197221 -2.07345 0)
(-0.396415 -1.37984 0)
(-0.523357 0.0798829 0)
(-0.428464 0.677581 0)
(-0.1371 1.08747 0)
(0.0955295 0.549065 0)
(0.155458 0.168241 0)
(0.137126 -0.437313 0)
(0.0400821 -0.493617 0)
(-0.0353952 -0.0179978 0)
(-0.0371974 0.252696 0)
(-0.00134287 0.225318 0)
(0.037027 0.0557159 0)
(0.0444068 -0.105633 0)
(0.00168667 -0.101424 0)
(-0.0671046 -0.0165891 0)
(-0.118065 0.0220256 0)
(-0.122282 0.0101376 0)
(-0.0779025 -0.00906931 0)
(0.00375987 -0.0142496 0)
(0.0898123 -0.00934381 0)
(0.148939 0.00168538 0)
(0.163393 0.0165432 0)
(0.134833 0.019061 0)
(0.0362402 -4.33897e-05 0)
(4.22383e-14 -5.74001e-14 0)
(1.32752e-13 -4.10794e-14 0)
(2.92931e-13 8.06218e-14 0)
(4.80406e-13 5.68057e-14 0)
(-1.65192e-12 1.55587e-13 0)
(1.19868e-12 5.33302e-14 0)
(-6.02579e-13 -1.59519e-13 0)
(5.34915e-13 -1.61211e-13 0)
(-9.18975e-13 7.07852e-14 0)
(-5.68687e-13 1.41349e-13 0)
(4.4496e-12 1.26676e-13 0)
(3.04566e-12 1.44257e-13 0)
(-2.44445e-12 2.71194e-13 0)
(-4.47023e-12 6.34209e-14 0)
(5.14477e-12 -1.65979e-13 0)
(9.33476e-12 -2.93575e-13 0)
(-1.76182e-11 -2.20011e-13 0)
(6.14115e-12 -4.44696e-14 0)
(1.93837e-12 3.64321e-13 0)
(1.9476e-11 2.03456e-12 0)
(-2.41659e-11 3.51967e-12 0)
(-1.82808e-10 3.25869e-12 0)
(-7.46649e-10 2.88766e-11 0)
(-3.30323e-09 1.37759e-10 0)
(-1.25853e-08 6.15675e-10 0)
(-4.81552e-08 2.5844e-09 0)
(-1.97072e-07 9.61531e-09 0)
(-8.05794e-07 3.26135e-08 0)
(-2.77774e-06 1.90253e-07 0)
(-6.78714e-06 7.76909e-07 0)
(3.3343e-06 3.65063e-06 0)
(6.71271e-05 1.00922e-05 0)
(0.000213016 2.08556e-05 0)
(-0.000902085 -0.000193334 0)
(-0.0014249 -0.000597063 0)
(0.0105375 0.00273748 0)
(-0.0073435 -0.0040395 0)
(4.03991 2.46104 0)
(-2.24055 -0.396478 0)
(-2.56823 -1.85292 0)
(-2.08974 -2.14601 0)
(-1.23917 -0.356719 0)
(-0.432742 1.05906 0)
(0.489137 1.73879 0)
(1.17693 1.42746 0)
(1.36601 0.614695 0)
(1.01955 -0.167065 0)
(0.294093 -1.23985 0)
(-0.33709 -0.980474 0)
(-0.517349 -0.0264421 0)
(-0.370726 0.561848 0)
(-0.036478 0.683631 0)
(0.243477 0.427166 0)
(0.341697 0.0533724 0)
(0.245908 -0.372807 0)
(0.022909 -0.331857 0)
(-0.132603 0.0802013 0)
(-0.140978 0.27062 0)
(-0.0576424 0.200627 0)
(0.0333173 0.00651463 0)
(0.0660032 -0.139957 0)
(0.0232936 -0.109591 0)
(-0.057373 -0.0115124 0)
(-0.119693 0.0291494 0)
(-0.130556 0.0188124 0)
(-0.0849982 0.0036234 0)
(0.00552934 0.00145163 0)
(0.0999705 0.00339062 0)
(0.161561 0.00568251 0)
(0.168804 0.0113938 0)
(0.119437 0.00703644 0)
(0.0312 -0.0152922 0)
(-1.22183e-13 5.29868e-15 0)
(3.67613e-13 -1.5954e-14 0)
(-1.0354e-12 -6.8805e-14 0)
(1.91788e-12 -1.11159e-13 0)
(4.28534e-13 5.7079e-16 0)
(-7.04006e-13 6.92793e-14 0)
(9.3564e-13 -7.0328e-14 0)
(1.20911e-13 -2.43608e-14 0)
(-1.09731e-12 -4.73613e-14 0)
(-1.1635e-12 -9.88138e-14 0)
(-3.11638e-13 -2.85836e-13 0)
(5.55646e-13 -1.18212e-13 0)
(1.9575e-12 3.75518e-14 0)
(-8.31237e-13 4.66117e-14 0)
(1.14793e-12 2.97753e-13 0)
(1.6013e-12 -8.2989e-14 0)
(-1.46335e-12 -1.35111e-13 0)
(-9.14604e-13 -2.72876e-13 0)
(-3.21588e-12 2.06488e-13 0)
(6.7033e-12 -2.12932e-12 0)
(-2.39904e-11 -4.25192e-12 0)
(-1.65284e-10 -1.60822e-12 0)
(-9.60258e-10 9.89106e-12 0)
(-3.44827e-09 2.51665e-11 0)
(-1.28822e-08 4.91695e-11 0)
(-4.90475e-08 5.6349e-11 0)
(-1.94449e-07 -6.58965e-10 0)
(-7.80022e-07 -3.16671e-09 0)
(-2.91346e-06 4.74137e-08 0)
(-8.17463e-06 2.00671e-07 0)
(-8.68556e-06 2.27378e-06 0)
(7.241e-05 1.05667e-05 0)
(0.000198352 3.42662e-05 0)
(0.000214672 -0.000114978 0)
(-0.00122994 -0.000345964 0)
(0.00122917 9.56976e-05 0)
(-0.0183172 0.00176068 0)
(3.81232e-06 2.70204 0)
(0.676872 0.212373 0)
(0.0843401 -1.68243 0)
(-0.517849 -2.38271 0)
(-0.81654 -0.818423 0)
(-0.847538 0.71159 0)
(-0.469648 1.19766 0)
(0.107233 1.16548 0)
(0.59504 0.706026 0)
(0.698148 0.247052 0)
(0.346858 -0.525741 0)
(-0.101724 -0.528779 0)
(-0.300759 -0.00253499 0)
(-0.187497 0.339876 0)
(0.0967494 0.359621 0)
(0.327835 0.224929 0)
(0.403882 -0.0236199 0)
(0.237345 -0.245525 0)
(-0.0506661 -0.133574 0)
(-0.230468 0.161026 0)
(-0.223797 0.250888 0)
(-0.0961483 0.136687 0)
(0.0383507 -0.057227 0)
(0.0887071 -0.164845 0)
(0.0463235 -0.106687 0)
(-0.0416371 -0.0042795 0)
(-0.112801 0.035699 0)
(-0.131976 0.029772 0)
(-0.0898096 0.0223831 0)
(0.00298581 0.0240602 0)
(0.0999752 0.0207216 0)
(0.161359 0.00991892 0)
(0.163433 0.0016554 0)
(0.099368 -0.0119654 0)
(0.025165 -0.0356345 0)
(-9.14939e-14 3.56109e-14 0)
(-1.67919e-13 -2.48336e-14 0)
(-1.35796e-13 -3.74589e-14 0)
(1.00916e-12 1.09656e-13 0)
(-3.18425e-13 1.60963e-14 0)
(-1.66197e-12 -2.54919e-13 0)
(-7.98719e-13 -7.80385e-14 0)
(1.9826e-12 1.58291e-14 0)
(-9.61962e-13 -1.50207e-13 0)
(4.52276e-13 -2.81109e-13 0)
(1.60998e-14 -1.83366e-13 0)
(1.48362e-12 -1.50352e-13 0)
(-4.49231e-13 1.37252e-13 0)
(-1.75827e-12 2.32678e-13 0)
(7.40417e-14 1.4886e-13 0)
(5.45174e-13 1.23107e-13 0)
(3.86794e-12 -8.86029e-14 0)
(3.64771e-12 -4.37323e-13 0)
(-2.49559e-12 -1.80687e-12 0)
(8.4227e-12 -1.34308e-12 0)
(-3.55479e-11 -3.12025e-12 0)
(-1.37381e-10 1.3224e-11 0)
(-8.95839e-10 -4.23911e-12 0)
(-3.20503e-09 -6.41603e-11 0)
(-1.23108e-08 -2.80355e-10 0)
(-4.88417e-08 -1.01188e-09 0)
(-1.73586e-07 -3.65408e-09 0)
(-7.11975e-07 -1.37273e-08 0)
(-2.69807e-06 -6.19617e-08 0)
(-8.43021e-06 -1.16177e-07 0)
(-1.35224e-05 3.12263e-07 0)
(5.00345e-05 3.71252e-06 0)
(0.000183509 8.62071e-06 0)
(0.000655828 -3.0529e-05 0)
(-0.00152919 -2.62699e-05 0)
(0.00286544 0.00100381 0)
(-0.0106502 -0.00711346 0)
(-1.00267 2.39227 0)
(2.53997 -0.725315 0)
(1.9672 -1.79103 0)
(0.606062 -1.6711 0)
(-0.662871 -0.389135 0)
(-1.42967 0.661651 0)
(-1.4464 0.860825 0)
(-0.937524 0.615115 0)
(-0.146125 0.376455 0)
(0.418473 0.234373 0)
(0.463566 -0.0798948 0)
(0.248686 -0.112653 0)
(0.0534168 0.103867 0)
(0.0603094 0.206259 0)
(0.22026 0.11078 0)
(0.358196 0.0200619 0)
(0.364608 -0.0685195 0)
(0.152499 -0.0937023 0)
(-0.145696 0.0535266 0)
(-0.3099 0.213924 0)
(-0.27343 0.195656 0)
(-0.109942 0.0449944 0)
(0.0490309 -0.122193 0)
(0.109073 -0.17447 0)
(0.0677478 -0.0913929 0)
(-0.0219171 0.00679174 0)
(-0.0980342 0.0416135 0)
(-0.125917 0.0415425 0)
(-0.0926443 0.0438294 0)
(-0.00594616 0.0487403 0)
(0.0868295 0.0382151 0)
(0.145098 0.0121597 0)
(0.145092 -0.0119404 0)
(0.075776 -0.034585 0)
(0.0186197 -0.0567581 0)
(-6.7944e-15 2.34925e-15 0)
(8.71136e-14 2.70676e-14 0)
(-8.58526e-13 2.15499e-14 0)
(1.69237e-13 1.0199e-13 0)
(-3.94784e-13 2.73145e-14 0)
(6.8496e-13 -1.89766e-13 0)
(1.03956e-12 -8.71401e-14 0)
(3.72522e-13 6.875e-15 0)
(-9.80059e-13 7.08634e-14 0)
(4.53498e-13 1.44716e-13 0)
(-8.68662e-13 2.66522e-13 0)
(-2.26049e-12 1.43874e-13 0)
(-2.9717e-12 -1.47144e-13 0)
(4.11134e-12 -1.40563e-13 0)
(-3.32033e-12 -8.37396e-14 0)
(-3.18688e-13 -1.25276e-15 0)
(-5.01197e-13 5.48432e-13 0)
(9.35986e-13 4.21471e-13 0)
(3.04658e-11 4.18488e-13 0)
(-8.79174e-12 1.9411e-12 0)
(-5.65899e-11 -1.34878e-13 0)
(-1.32695e-10 -8.96888e-12 0)
(-7.09086e-10 -2.24312e-11 0)
(-3.06771e-09 -9.67253e-11 0)
(-1.0659e-08 -3.33499e-10 0)
(-4.08639e-08 -9.96338e-10 0)
(-1.69216e-07 -1.82817e-09 0)
(-6.61966e-07 -7.64301e-09 0)
(-2.469e-06 -1.14681e-07 0)
(-7.58064e-06 -2.00144e-07 0)
(-1.39372e-05 -9.25813e-07 0)
(4.36814e-05 -1.66918e-06 0)
(0.00019244 -1.45565e-05 0)
(0.0011156 -1.47454e-05 0)
(-0.00219413 1.95451e-05 0)
(-0.000129475 0.000437014 0)
(-0.00643784 0.000753794 0)
(0.372896 0.0602523 0)
(3.20081 -0.927815 0)
(2.13044 -0.882201 0)
(0.497319 -0.264906 0)
(-0.963649 0.525953 0)
(-1.8665 0.802026 0)
(-1.92678 0.550533 0)
(-1.35106 -0.156306 0)
(-0.314564 -0.379323 0)
(0.500476 -0.0528032 0)
(0.729219 0.118618 0)
(0.625294 0.224502 0)
(0.398794 0.298605 0)
(0.267544 0.200666 0)
(0.277132 -0.0361349 0)
(0.306816 -0.145078 0)
(0.241277 -0.0883442 0)
(0.015802 0.0472128 0)
(-0.247032 0.198223 0)
(-0.366547 0.233773 0)
(-0.293385 0.114716 0)
(-0.105926 -0.0596574 0)
(0.0605803 -0.17631 0)
(0.122746 -0.165861 0)
(0.0851098 -0.0653452 0)
(0.000616282 0.0199434 0)
(-0.0761433 0.0462382 0)
(-0.112658 0.0520778 0)
(-0.0938276 0.0637421 0)
(-0.0219867 0.070244 0)
(0.05942 0.051755 0)
(0.11228 0.0110093 0)
(0.114334 -0.0273671 0)
(0.05031 -0.0567608 0)
(0.0119848 -0.0742747 0)
(5.38713e-15 2.11171e-15 0)
(6.74083e-13 -4.58161e-15 0)
(-4.81003e-13 -1.19046e-13 0)
(-1.72284e-12 -5.72405e-14 0)
(8.52597e-13 -7.14925e-14 0)
(1.17525e-12 7.96621e-14 0)
(-4.98317e-13 3.61097e-14 0)
(-2.32023e-12 -3.06523e-14 0)
(2.86446e-12 4.66188e-15 0)
(-1.13451e-12 1.74196e-13 0)
(-5.37565e-13 2.52359e-13 0)
(1.6431e-13 3.69895e-14 0)
(-3.90683e-13 -2.69396e-13 0)
(6.00539e-13 -2.52154e-13 0)
(-1.34443e-12 -1.89236e-13 0)
(6.12135e-12 2.01474e-13 0)
(6.75083e-12 2.42427e-13 0)
(-6.71183e-12 5.30312e-13 0)
(-4.88206e-12 1.83373e-12 0)
(1.69712e-11 2.09488e-12 0)
(-6.83621e-11 1.81253e-12 0)
(-1.84281e-10 -9.70986e-12 0)
(-6.15743e-10 -3.97025e-11 0)
(-2.83518e-09 -1.2184e-10 0)
(-1.09932e-08 -3.43299e-10 0)
(-4.30802e-08 -9.23868e-10 0)
(-1.68682e-07 -4.0048e-09 0)
(-6.59392e-07 -1.77493e-08 0)
(-2.27613e-06 -2.43449e-07 0)
(-5.97627e-06 -5.44393e-07 0)
(6.05904e-06 -3.15488e-06 0)
(2.47396e-05 -8.30365e-06 0)
(0.000186188 6.00819e-07 0)
(-6.057e-05 2.2485e-05 0)
(-1.08326e-05 0.000188719 0)
(-0.000470721 0.000495557 0)
(-0.00497157 0.0181594 0)
(1.51914 -2.59699 0)
(3.03361 -1.11382 0)
(1.09965 0.404003 0)
(-0.486367 1.16758 0)
(-1.69732 1.53931 0)
(-2.30224 0.941927 0)
(-1.99383 0.153127 0)
(-1.03474 -1.17877 0)
(0.210879 -1.33599 0)
(1.00278 -0.392136 0)
(1.09677 0.272397 0)
(0.891636 0.547319 0)
(0.551162 0.568021 0)
(0.306488 0.293881 0)
(0.214885 -0.120675 0)
(0.184614 -0.275547 0)
(0.0854437 -0.103654 0)
(-0.123068 0.150704 0)
(-0.323359 0.289242 0)
(-0.385617 0.223588 0)
(-0.280655 0.0206626 0)
(-0.0862197 -0.159426 0)
(0.0734492 -0.211535 0)
(0.132548 -0.140237 0)
(0.102106 -0.0320382 0)
(0.0283577 0.033213 0)
(-0.0464924 0.0490514 0)
(-0.092983 0.0599538 0)
(-0.0942612 0.0784987 0)
(-0.0453431 0.083957 0)
(0.0193898 0.0581415 0)
(0.0657493 0.00624896 0)
(0.0736409 -0.0429581 0)
(0.0247052 -0.0744986 0)
(0.00576667 -0.0844411 0)
(1.77746e-13 -4.06401e-14 0)
(-1.03223e-13 -8.48552e-14 0)
(1.09364e-12 -4.77598e-14 0)
(-2.10342e-12 -1.70941e-13 0)
(-1.56167e-12 -3.65115e-14 0)
(-1.25602e-12 3.58798e-14 0)
(1.80167e-13 1.89496e-14 0)
(3.61278e-12 -1.63594e-14 0)
(3.43525e-12 9.2669e-14 0)
(-1.50377e-12 5.29933e-14 0)
(-2.63137e-12 -1.82353e-13 0)
(-7.87501e-13 -5.85762e-14 0)
(7.51109e-13 -2.90764e-14 0)
(1.76997e-12 -6.53163e-14 0)
(6.37879e-12 2.38571e-14 0)
(-2.06616e-12 -3.13094e-15 0)
(-3.09991e-12 -1.90354e-14 0)
(3.95425e-12 2.23486e-13 0)
(3.30104e-12 1.87679e-13 0)
(-2.25652e-11 -1.6534e-12 0)
(-1.21345e-11 4.60581e-14 0)
(7.76507e-11 -5.5979e-12 0)
(-5.78359e-10 -5.46987e-11 0)
(-2.72441e-09 -2.23525e-10 0)
(-1.11864e-08 -7.73991e-10 0)
(-4.64765e-08 -2.26534e-09 0)
(-1.78542e-07 -6.26209e-09 0)
(-6.09734e-07 -6.926e-08 0)
(-1.58463e-06 -2.54319e-07 0)
(-4.13697e-06 -9.02075e-07 0)
(7.60165e-06 -3.86214e-06 0)
(0.000100489 -1.65034e-05 0)
(0.000161643 -7.0287e-07 0)
(-0.000236354 5.3498e-05 0)
(-0.00379828 -0.000172338 0)
(0.00585893 -0.00397703 0)
(0.0100204 0.0141175 0)
(-0.0292014 -4.56239 0)
(2.11621 -0.0500172 0)
(-0.183944 1.49247 0)
(-2.07019 2.53881 0)
(-2.99591 1.93022 0)
(-2.56598 0.709533 0)
(-1.26725 -0.859048 0)
(0.385815 -2.40482 0)
(1.44104 -2.0322 0)
(1.63238 -0.400565 0)
(1.25753 0.623181 0)
(0.832696 0.927097 0)
(0.406742 0.865749 0)
(0.147623 0.388233 0)
(0.0781963 -0.22027 0)
(0.0615083 -0.404789 0)
(-0.0333837 -0.132032 0)
(-0.200992 0.209719 0)
(-0.337861 0.333865 0)
(-0.355847 0.193909 0)
(-0.239976 -0.0680915 0)
(-0.0603895 -0.236482 0)
(0.0792347 -0.222159 0)
(0.134124 -0.102377 0)
(0.115905 0.00281713 0)
(0.0590481 0.0439776 0)
(-0.0117722 0.0488767 0)
(-0.0707676 0.0637391 0)
(-0.0965598 0.0855602 0)
(-0.0749386 0.0876628 0)
(-0.0294626 0.0565437 0)
(0.0105431 -0.00152473 0)
(0.02723 -0.0563043 0)
(0.000518294 -0.0851628 0)
(0.000346377 -0.0858771 0)
(4.1993e-14 -9.74759e-15 0)
(-4.5952e-13 2.45195e-14 0)
(9.41125e-13 1.46724e-13 0)
(-2.41715e-13 -7.10895e-14 0)
(-1.33452e-12 -7.46047e-14 0)
(-6.08195e-13 6.24032e-14 0)
(-2.71974e-13 3.64359e-14 0)
(1.21004e-12 4.46191e-14 0)
(-1.34877e-12 -1.77878e-14 0)
(-9.56969e-13 -5.40064e-14 0)
(7.14131e-13 -3.00858e-14 0)
(4.00929e-12 -1.01061e-13 0)
(3.60577e-13 -7.33023e-14 0)
(-1.37443e-12 -2.5871e-14 0)
(1.67899e-12 -8.40977e-14 0)
(-2.99632e-12 -2.13644e-13 0)
(6.16042e-13 1.23033e-13 0)
(-7.75727e-12 3.8226e-13 0)
(-1.1136e-11 6.5515e-13 0)
(2.09147e-11 -2.56363e-13 0)
(1.42642e-12 -5.0519e-12 0)
(-3.64208e-11 -5.72697e-12 0)
(-4.12136e-10 -2.77852e-11 0)
(-2.30773e-09 -1.18024e-10 0)
(-1.10626e-08 -3.83833e-10 0)
(-4.72399e-08 -2.16917e-09 0)
(-1.92484e-07 -1.3979e-08 0)
(-2.71464e-07 -8.576e-08 0)
(-1.76079e-06 -2.68526e-07 0)
(-7.66631e-07 -9.37064e-07 0)
(1.16681e-05 -1.9982e-06 0)
(1.71099e-05 -4.42623e-06 0)
(0.000341867 2.38301e-05 0)
(-0.000266847 9.3341e-05 0)
(-0.00315466 -0.000372845 0)
(0.0183249 -0.000740215 0)
(0.00695995 -0.02485 0)
(-1.53619 -4.1091 0)
(-0.818685 1.35389 0)
(-2.39828 2.68953 0)
(-2.64966 2.78448 0)
(-1.97504 1.20192 0)
(-0.656663 -0.102092 0)
(0.845532 -2.13541 0)
(1.81231 -3.24944 0)
(2.01148 -2.00828 0)
(1.45927 0.0917832 0)
(0.810857 1.16241 0)
(0.257592 1.31484 0)
(-0.13211 1.08448 0)
(-0.235831 0.348122 0)
(-0.150617 -0.418118 0)
(-0.0698233 -0.57171 0)
(-0.109192 -0.176432 0)
(-0.21795 0.232324 0)
(-0.3104 0.345093 0)
(-0.30526 0.156353 0)
(-0.195108 -0.135903 0)
(-0.0482694 -0.280704 0)
(0.066863 -0.206318 0)
(0.122655 -0.0593022 0)
(0.124939 0.0320294 0)
(0.0899703 0.0467171 0)
(0.0231238 0.0426997 0)
(-0.0502484 0.0613503 0)
(-0.102939 0.0841899 0)
(-0.110002 0.0817966 0)
(-0.0833331 0.0478054 0)
(-0.0478154 -0.0109108 0)
(-0.0199396 -0.0653617 0)
(-0.0206529 -0.0874473 0)
(-0.00417467 -0.0785074 0)
(-9.56786e-14 6.36011e-14 0)
(1.26901e-13 7.64672e-14 0)
(3.46825e-14 -8.22284e-15 0)
(-1.17774e-13 7.76137e-14 0)
(-1.24426e-12 8.79428e-15 0)
(-4.9451e-13 -7.36936e-14 0)
(-6.03811e-14 -6.35761e-14 0)
(1.66579e-12 1.2743e-13 0)
(-8.87888e-14 1.25724e-13 0)
(6.99585e-13 1.34899e-13 0)
(6.16672e-13 2.71841e-13 0)
(6.58423e-13 -1.91393e-14 0)
(-4.87656e-13 -1.08115e-13 0)
(3.98045e-14 -2.4778e-13 0)
(8.86552e-13 -1.95771e-13 0)
(-2.38464e-12 1.87886e-13 0)
(1.71248e-12 -2.55352e-13 0)
(-6.6181e-12 2.59325e-13 0)
(4.36217e-12 9.1105e-13 0)
(-4.61986e-12 -1.73649e-13 0)
(-1.83016e-11 -2.72047e-12 0)
(-5.18763e-11 -1.50479e-11 0)
(-1.99122e-10 -6.37898e-11 0)
(-1.6623e-09 -2.5187e-10 0)
(-9.16345e-09 -1.03351e-09 0)
(-3.84e-08 -4.52881e-09 0)
(-9.57439e-08 -2.07456e-08 0)
(-2.3767e-07 -6.60625e-08 0)
(-9.28669e-07 -2.06267e-07 0)
(-1.89618e-07 -8.45232e-07 0)
(8.24249e-06 -2.11778e-06 0)
(3.56414e-05 -2.26407e-06 0)
(0.000109466 2.68463e-05 0)
(-0.000379345 9.56652e-05 0)
(-0.00174272 -0.000324716 0)
(0.0197521 0.00114417 0)
(-0.0309814 -0.00936668 0)
(-2.62553 -1.20765 0)
(-1.93512 0.877567 0)
(-2.21922 1.90341 0)
(-0.983495 1.84436 0)
(0.687046 0.0394156 0)
(2.19663 -0.955304 0)
(2.9415 -2.62318 0)
(2.57297 -2.88969 0)
(1.35867 -1.07698 0)
(0.226019 0.975683 0)
(-0.452498 1.57216 0)
(-0.845036 1.54519 0)
(-0.865224 1.00996 0)
(-0.53347 0.0238721 0)
(-0.157083 -0.764818 0)
(0.031524 -0.770312 0)
(0.0118244 -0.222337 0)
(-0.10497 0.238782 0)
(-0.189875 0.345304 0)
(-0.196562 0.131281 0)
(-0.132314 -0.169672 0)
(-0.0411839 -0.284329 0)
(0.0464587 -0.167246 0)
(0.10436 -0.0160102 0)
(0.134157 0.0504432 0)
(0.121906 0.0367255 0)
(0.0585454 0.0275168 0)
(-0.0327326 0.051328 0)
(-0.113401 0.0749371 0)
(-0.148131 0.0683776 0)
(-0.137985 0.0345821 0)
(-0.104018 -0.0194304 0)
(-0.0637385 -0.068584 0)
(-0.0383138 -0.0822006 0)
(-0.00772883 -0.064294 0)
(5.24791e-14 1.65513e-14 0)
(-3.18326e-13 -1.16098e-14 0)
(-6.62893e-13 -1.56757e-14 0)
(3.67152e-13 1.12097e-13 0)
(-2.82264e-13 -9.56439e-14 0)
(-3.61193e-13 -1.90424e-13 0)
(1.53184e-12 -1.07771e-13 0)
(-2.65917e-13 -3.13457e-14 0)
(-5.2723e-13 1.44674e-13 0)
(-2.51317e-12 4.95839e-14 0)
(1.96797e-13 1.42837e-13 0)
(2.04647e-12 1.18676e-13 0)
(6.56641e-13 2.53373e-14 0)
(4.09856e-12 2.86168e-14 0)
(-8.05873e-13 4.65909e-14 0)
(-1.72048e-12 1.32031e-13 0)
(-5.18984e-13 -6.05886e-14 0)
(-8.70892e-13 -4.43454e-13 0)
(-5.78915e-12 -4.65173e-13 0)
(1.05565e-11 5.45146e-13 0)
(3.72503e-11 -1.60244e-13 0)
(-7.71031e-11 -1.73861e-12 0)
(-4.08762e-11 -1.03881e-12 0)
(-1.11265e-09 -6.84251e-11 0)
(-5.5849e-09 -5.03761e-10 0)
(-2.10737e-08 -1.98219e-09 0)
(-3.84601e-08 -4.85457e-09 0)
(-2.7252e-08 -2.93555e-08 0)
(-4.4505e-07 -1.33794e-07 0)
(8.02009e-07 -3.7918e-07 0)
(6.97753e-06 -5.88299e-07 0)
(-3.27936e-05 -1.95058e-06 0)
(0.000235768 1.28753e-05 0)
(-0.000550302 3.96716e-05 0)
(-8.3557e-05 -4.83521e-05 0)
(0.000129918 0.00417357 0)
(-0.0280585 -0.00542081 0)
(-1.88871 1.46843 0)
(-1.01388 0.453707 0)
(0.158662 0.305318 0)
(1.76868 -0.0552925 0)
(3.31535 -0.570338 0)
(3.59371 -1.15327 0)
(2.75907 -1.78776 0)
(1.059 -1.39754 0)
(-0.603186 0.343054 0)
(-1.6285 1.592 0)
(-2.0304 1.64415 0)
(-1.62325 1.26008 0)
(-0.780989 0.393523 0)
(0.0775857 -0.625032 0)
(0.671828 -1.15367 0)
(0.784948 -0.835374 0)
(0.569504 -0.120533 0)
(0.261965 0.353944 0)
(0.0300187 0.406386 0)
(-0.0777557 0.139091 0)
(-0.086566 -0.167617 0)
(-0.0434572 -0.246758 0)
(0.0222571 -0.111963 0)
(0.0923921 0.0232875 0)
(0.154037 0.0528163 0)
(0.162667 0.0130219 0)
(0.0998487 0.00322167 0)
(-0.0116901 0.0357897 0)
(-0.122351 0.0611575 0)
(-0.184558 0.0517369 0)
(-0.188782 0.0210425 0)
(-0.15424 -0.0242184 0)
(-0.102001 -0.0655755 0)
(-0.0526932 -0.070806 0)
(-0.0105204 -0.0458173 0)
(-4.86869e-14 -5.57741e-15 0)
(-7.64318e-13 -1.50516e-14 0)
(-1.72097e-13 1.22549e-14 0)
(1.62011e-12 3.92939e-14 0)
(5.44569e-15 7.00942e-14 0)
(-2.80302e-13 1.50604e-13 0)
(-3.70936e-14 1.78375e-13 0)
(4.08659e-14 -7.64768e-14 0)
(5.33213e-13 2.82491e-14 0)
(2.07837e-13 6.03009e-14 0)
(-4.08959e-13 -2.00529e-13 0)
(-2.63677e-12 -1.10115e-13 0)
(3.15757e-12 -7.42251e-16 0)
(1.88814e-12 2.95812e-13 0)
(-1.80254e-12 9.25762e-14 0)
(3.3919e-13 8.73036e-15 0)
(-2.8938e-12 2.39401e-13 0)
(5.1784e-12 5.32743e-14 0)
(-4.25489e-12 -5.47769e-13 0)
(-1.46008e-11 7.71312e-13 0)
(2.25419e-11 1.43642e-12 0)
(-1.13188e-10 3.243e-12 0)
(-1.66818e-11 9.83728e-12 0)
(-7.28558e-10 4.10476e-11 0)
(-4.30091e-09 1.21888e-10 0)
(-1.37246e-08 -1.52541e-11 0)
(-2.85455e-08 -6.83293e-10 0)
(-1.19383e-08 2.39624e-08 0)
(-4.88571e-08 1.06178e-07 0)
(1.1755e-06 2.97893e-07 0)
(7.58221e-06 8.13379e-07 0)
(3.29039e-05 -4.53732e-07 0)
(6.84847e-05 -2.45916e-05 0)
(-0.000113012 -8.28246e-05 0)
(-0.000321013 0.00041943 0)
(-0.000353398 1.43005e-05 0)
(0.00640828 -0.00513096 0)
(0.804401 1.76506 0)
(1.66783 0.36893 0)
(2.01591 -0.97195 0)
(2.40516 -1.26241 0)
(2.30751 -0.842313 0)
(1.49675 -0.466774 0)
(0.270568 -0.227964 0)
(-1.19006 0.400608 0)
(-2.12814 1.3525 0)
(-2.31377 1.68713 0)
(-1.86953 1.31906 0)
(-1.03996 0.41983 0)
(0.0631101 -0.666518 0)
(1.1377 -1.41782 0)
(1.46967 -1.38089 0)
(1.18812 -0.635418 0)
(0.704124 0.186966 0)
(0.259733 0.599477 0)
(-0.0118169 0.527772 0)
(-0.115589 0.168154 0)
(-0.126004 -0.151119 0)
(-0.0954148 -0.200817 0)
(-0.0239798 -0.060943 0)
(0.0772716 0.0472721 0)
(0.176569 0.0352827 0)
(0.208855 -0.0232473 0)
(0.147746 -0.0252318 0)
(0.0139839 0.0201396 0)
(-0.127112 0.0481188 0)
(-0.215674 0.0376083 0)
(-0.232851 0.0118423 0)
(-0.196673 -0.0230951 0)
(-0.134321 -0.0562892 0)
(-0.0648358 -0.0550954 0)
(-0.0127991 -0.0254642 0)
(-1.71791e-13 6.59689e-16 0)
(-1.74182e-13 -1.93406e-14 0)
(-1.02932e-13 -1.87474e-14 0)
(6.08545e-13 -3.30875e-14 0)
(1.532e-13 9.09848e-14 0)
(5.85229e-13 7.63936e-14 0)
(-1.32826e-12 5.19681e-14 0)
(-8.15882e-13 -2.94584e-14 0)
(2.52334e-13 -4.7516e-14 0)
(3.25266e-13 -3.99514e-13 0)
(-4.75342e-13 -1.88827e-13 0)
(-3.0132e-13 -3.1753e-14 0)
(9.74299e-13 -5.92394e-14 0)
(2.42035e-12 1.41411e-13 0)
(-5.08031e-13 1.09662e-13 0)
(-5.31878e-14 8.71437e-14 0)
(4.57539e-12 5.92874e-14 0)
(-6.65454e-12 -4.6823e-13 0)
(-3.43084e-12 2.03392e-13 0)
(5.4977e-12 1.59188e-12 0)
(1.6411e-11 -1.49447e-13 0)
(-5.13481e-11 3.2285e-12 0)
(-1.51839e-11 2.32479e-11 0)
(-4.94135e-10 5.30081e-11 0)
(-2.98989e-09 1.5965e-10 0)
(-1.18082e-08 1.22924e-09 0)
(-2.5249e-08 7.42141e-09 0)
(-5.33653e-08 4.17953e-08 0)
(-1.48322e-07 1.47326e-07 0)
(-6.18995e-07 4.50291e-07 0)
(2.52398e-06 1.55815e-06 0)
(2.61704e-05 3.98475e-06 0)
(5.68004e-05 -1.34323e-05 0)
(8.77955e-05 -2.04043e-05 0)
(-0.000772817 7.77834e-05 0)
(-0.00295273 6.96784e-05 0)
(0.0169831 0.00339155 0)
(0.676888 0.683225 0)
(1.26777 0.686253 0)
(1.0151 -1.24597 0)
(0.738454 -1.09599 0)
(-0.0180147 -0.494484 0)
(-0.764356 0.30617 0)
(-1.3879 0.840795 0)
(-2.11976 1.0647 0)
(-2.25668 1.25765 0)
(-1.53625 1.04262 0)
(-0.41758 0.362687 0)
(0.913793 -0.649975 0)
(1.97947 -1.55429 0)
(2.22979 -1.78532 0)
(1.79622 -1.14201 0)
(0.986109 -0.0992715 0)
(0.170019 0.663641 0)
(-0.332224 0.882335 0)
(-0.545682 0.593604 0)
(-0.520572 0.0988264 0)
(-0.39504 -0.220486 0)
(-0.261278 -0.209364 0)
(-0.121487 -0.0471318 0)
(0.0362558 0.0402229 0)
(0.178126 -0.00748851 0)
(0.239081 -0.0723921 0)
(0.185823 -0.0584463 0)
(0.037323 0.00628215 0)
(-0.128486 0.0396413 0)
(-0.239211 0.0309071 0)
(-0.2688 0.010291 0)
(-0.23205 -0.014082 0)
(-0.16203 -0.0408126 0)
(-0.0764527 -0.0364319 0)
(-0.0151413 -0.0049103 0)
(1.79954e-14 -3.27195e-14 0)
(-1.75656e-13 -1.3415e-14 0)
(2.96374e-13 -2.9423e-14 0)
(5.79182e-13 -4.14749e-14 0)
(1.36785e-12 4.11252e-15 0)
(-2.34335e-12 6.48729e-14 0)
(-1.69458e-12 8.90474e-14 0)
(-1.26741e-12 -1.26084e-14 0)
(3.77553e-12 -1.91541e-13 0)
(-3.73299e-12 -2.72884e-13 0)
(2.98968e-12 -1.51249e-13 0)
(1.47904e-12 -2.03331e-14 0)
(-3.69628e-12 1.22811e-13 0)
(-4.38547e-13 1.51838e-13 0)
(3.08246e-12 4.68149e-14 0)
(2.05947e-12 1.69772e-14 0)
(6.31465e-12 -6.71137e-14 0)
(-7.57057e-12 1.02599e-13 0)
(-1.25593e-11 -1.23017e-13 0)
(1.32851e-11 -1.60139e-12 0)
(-4.00682e-11 1.30404e-12 0)
(8.03032e-12 -9.50924e-14 0)
(1.93111e-11 8.7756e-12 0)
(-4.98359e-10 3.26355e-11 0)
(-2.25305e-09 8.08428e-11 0)
(-8.85634e-09 5.41859e-10 0)
(-2.98617e-08 2.99385e-09 0)
(-9.12726e-08 1.74491e-08 0)
(-2.07724e-07 7.47511e-08 0)
(-1.05482e-06 2.06506e-07 0)
(-9.32893e-07 1.02874e-06 0)
(9.81164e-06 4.23452e-06 0)
(5.84475e-05 8.33934e-06 0)
(0.000247981 -5.44547e-07 0)
(-0.000309502 -0.000236243 0)
(-0.00310944 -0.000316013 0)
(0.000568114 0.00279915 0)
(0.231633 0.133615 0)
(0.0320173 0.309294 0)
(-0.450014 -0.856387 0)
(-0.812423 -0.535619 0)
(-1.70125 -0.0781246 0)
(-2.29112 0.650638 0)