/*--------------------------------*- C++ -*----------------------------------*\
  =========                 |
  \\      /  F ield         | OpenFOAM: The Open Source CFD Toolbox
   \\    /   O peration     | Website:  https://openfoam.org
    \\  /    A nd           | Version:  13
     \\/     M anipulation  |
\*---------------------------------------------------------------------------*/
FoamFile
{
    format      ascii;
    class       volScalarField;
    location    "4";
    object      rho;
}
// * * * * * * * * * * * * * * * * * * * * * * * * * * * * * * * * * * * * * //

dimensions      [1 -3 0 0 0 0 0];

internalField   nonuniform List<scalar> 
36576
(
1.40001
1.40001
1.40001
1.40001
1.40001
1.40001
1.40001
1.40001
1.40001
1.40001
1.40001
1.40001
1.40001
1.40001
1.40001
1.40001
1.40001
1.40001
1.40001
1.40001
1.40001
1.40001
1.40001
1.40001
1.40001
1.40001
1.40001
1.40001
1.40001
1.40001
1.40001
1.4
1.4
1.40002
1.40004
1.39977
1.40007
5.34854
5.50184
5.49161
5.50802
5.52176
5.53961
5.56481
5.59409
5.62711
5.65989
5.68618
5.70721
5.7252
5.74215
5.76258
5.78603
5.81116
5.83481
5.8555
5.87387
5.89032
5.9064
5.92205
5.93699
5.95102
5.96435
5.97687
5.98854
5.99938
6.00899
6.01589
6.02139
6.02243
6.03231
5.96657
1.40001
1.40001
1.40001
1.40001
1.40001
1.40001
1.40001
1.40001
1.40001
1.40001
1.40001
1.40001
1.40001
1.40001
1.40001
1.40001
1.40001
1.40001
1.40001
1.40001
1.40001
1.40001
1.40001
1.40001
1.40001
1.40001
1.40001
1.40001
1.40001
1.40001
1.40001
1.4
1.4
1.40001
1.40004
1.39987
1.39996
5.32952
5.48019
5.48491
5.50637
5.52638
5.54563
5.56924
5.59594
5.62422
5.654
5.68039
5.70318
5.72321
5.74203
5.76252
5.78509
5.80944
5.83256
5.85319
5.87171
5.88816
5.90422
5.91983
5.93479
5.94885
5.96216
5.97463
5.98627
5.99709
6.00676
6.01369
6.01919
6.02017
6.03002
5.96425
1.40001
1.40001
1.40001
1.40001
1.40001
1.40001
1.40001
1.40001
1.40001
1.40001
1.40001
1.40001
1.40001
1.40001
1.40001
1.40001
1.40001
1.40001
1.40001
1.40001
1.40001
1.40001
1.40001
1.40001
1.40001
1.40001
1.40001
1.40001
1.40001
1.40001
1.40001
1.40001
1.4
1.4
1.40002
1.40006
1.39988
5.3004
5.45023
5.46932
5.49751
5.52631
5.5531
5.57717
5.60119
5.62522
5.64957
5.67441
5.69816
5.71989
5.74141
5.76272
5.78479
5.8079
5.8298
5.8502
5.86883
5.88563
5.90172
5.91726
5.93212
5.94616
5.95947
5.97194
5.98358
5.9944
6.00411
6.01107
6.01655
6.01747
6.02727
5.96137
1.40001
1.40001
1.40001
1.40001
1.40001
1.40001
1.40001
1.40001
1.40001
1.40001
1.40001
1.40001
1.40001
1.40001
1.40001
1.40001
1.40001
1.40001
1.40001
1.40001
1.40001
1.40001
1.40001
1.40001
1.40001
1.40001
1.40001
1.40001
1.40001
1.40001
1.40001
1.40001
1.40001
1.4
1.4
1.40015
1.39976
5.22808
5.43681
5.45919
5.48942
5.52012
5.55064
5.57753
5.60189
5.62449
5.64641
5.66921
5.6926
5.71553
5.73858
5.76107
5.78283
5.80445
5.82514
5.84523
5.86405
5.88138
5.89757
5.91292
5.92755
5.94158
5.95492
5.96739
5.97901
5.98983
5.99959
6.00658
6.01203
6.01287
6.02265
5.95653
1.40001
1.40001
1.40001
1.40001
1.40001
1.40001
1.40001
1.40001
1.40001
1.40001
1.40001
1.40001
1.40001
1.40001
1.40001
1.40001
1.40001
1.40001
1.40001
1.40001
1.40001
1.40001
1.40001
1.40001
1.40001
1.40001
1.40001
1.40001
1.40001
1.40001
1.40001
1.40001
1.40001
1.4
1.39999
1.40013
1.39993
5.12117
5.44447
5.45517
5.48232
5.51274
5.5435
5.57228
5.59794
5.62138
5.64274
5.66497
5.68788
5.71063
5.7338
5.75671
5.77836
5.79915
5.81929
5.83909
5.85803
5.87565
5.89197
5.90714
5.9216
5.93563
5.94897
5.96141
5.97299
5.9838
5.99361
6.00063
6.00606
6.00683
6.0166
5.95019
1.40001
1.40001
1.40001
1.40001
1.40001
1.40001
1.40001
1.40001
1.40001
1.40001
1.40001
1.40001
1.40001
1.40001
1.40001
1.40001
1.40001
1.40001
1.40001
1.40001
1.40001
1.40001
1.40001
1.40001
1.40001
1.40001
1.40001
1.40001
1.40001
1.40001
1.40001
1.40001
1.40001
1.4
1.39999
1.40007
1.39996
4.97809
5.4616
5.45501
5.47483
5.50374
5.53412
5.56392
5.59123
5.61619
5.63834
5.66014
5.68272
5.70516
5.72793
5.7505
5.77187
5.79224
5.81218
5.83182
5.85071
5.86836
5.88468
5.89977
5.91416
5.92814
5.94141
5.95376
5.96527
5.97608
5.98593
5.99298
5.99839
5.99911
6.00893
5.94216
1.40001
1.40001
1.40001
1.40001
1.40001
1.40001
1.40001
1.40001
1.40001
1.40001
1.40001
1.40001
1.40001
1.40001
1.40001
1.40001
1.40001
1.40001
1.40001
1.40001
1.40001
1.40001
1.40001
1.40001
1.40001
1.40001
1.40001
1.40001
1.40001
1.40001
1.40001
1.40001
1.40001
1.4
1.39998
1.40007
1.39992
4.81447
5.46947
5.45331
5.46758
5.49429
5.52463
5.55499
5.58366
5.60985
5.6331
5.65488
5.67694
5.69887
5.72095
5.74293
5.76383
5.78397
5.80379
5.82331
5.84209
5.85965
5.87588
5.89089
5.90522
5.91909
5.93222
5.94444
5.95586
5.96663
5.9765
5.98358
5.98899
5.98971
5.99962
5.93241
1.40001
1.40001
1.40001
1.40001
1.40001
1.40001
1.40001
1.40001
1.40001
1.40001
1.40001
1.40001
1.40001
1.40001
1.40001
1.40001
1.40001
1.40001
1.40001
1.40001
1.40001
1.40001
1.40001
1.40001
1.40001
1.40001
1.40001
1.40001
1.40001
1.40001
1.40001
1.40001
1.40001
1.4
1.39999
1.4001
1.39983
4.63213
5.4657
5.44742
5.45929
5.4857
5.51652
5.5477
5.57688
5.60338
5.62721
5.64876
5.67001
5.69123
5.7126
5.73394
5.75437
5.7744
5.7942
5.81363
5.83223
5.8496
5.86563
5.88051
5.89475
5.90844
5.92137
5.93341
5.94469
5.95538
5.96522
5.97232
5.97777
5.97851
5.98858
5.92084
1.40001
1.40001
1.40001
1.40001
1.40001
1.40001
1.40001
1.40001
1.40001
1.40001
1.40001
1.40001
1.40001
1.40001
1.40001
1.40001
1.40001
1.40001
1.40001
1.40001
1.40001
1.40001
1.40001
1.40001
1.40001
1.40001
1.40001
1.40001
1.40001
1.40001
1.40001
1.40001
1.40001
1.4
1.4
1.4001
1.39979
4.42582
5.45438
5.43918
5.45124
5.47881
5.50998
5.54148
5.57048
5.59672
5.62007
5.64092
5.66142
5.68198
5.70277
5.7235
5.74379
5.76379
5.78353
5.80278
5.82111
5.83818
5.85393
5.86859
5.8827
5.89615
5.90881
5.9206
5.93168
5.94222
5.95199
5.9591
5.96459
5.96541
5.97568
5.9073
1.40001
1.40001
1.40001
1.40001
1.40001
1.40001
1.40001
1.40001
1.40001
1.40001
1.40001
1.40001
1.40001
1.40001
1.40001
1.40001
1.40001
1.40001
1.40001
1.40001
1.40001
1.40001
1.40001
1.40001
1.40001
1.40001
1.40001
1.40001
1.40001
1.40001
1.40001
1.40001
1.4
1.4
1.40001
1.40007
1.39973
4.19463
5.43606
5.42705
5.44248
5.47346
5.50593
5.53692
5.56478
5.58971
5.61147
5.63119
5.65095
5.67106
5.69154
5.71203
5.73225
5.7521
5.77165
5.79054
5.80842
5.82508
5.84049
5.85497
5.8689
5.88211
5.89444
5.90591
5.91672
5.92704
5.93669
5.94379
5.94933
5.95024
5.96076
5.89159
1.40001
1.40001
1.40001
1.40001
1.40001
1.40001
1.40001
1.40001
1.40001
1.40001
1.40001
1.40001
1.40001
1.40001
1.40001
1.40001
1.40001
1.40001
1.40001
1.40001
1.40001
1.40001
1.40001
1.40001
1.40001
1.40001
1.40001
1.40001
1.40001
1.40001
1.40001
1.4
1.4
1.40001
1.40004
1.39998
1.39975
3.92547
5.4177
5.41629
5.44013
5.47406
5.50501
5.53262
5.55721
5.57998
5.60049
5.62016
5.6399
5.66014
5.68065
5.70098
5.72093
5.74037
5.75922
5.77728
5.79442
5.81052
5.82543
5.83979
5.85343
5.8663
5.87819
5.88925
5.89969
5.90969
5.91918
5.92623
5.93179
5.9328
5.94359
5.87345
1.40001
1.40001
1.40001
1.40001
1.40001
1.40001
1.40001
1.40001
1.40001
1.40001
1.40001
1.40001
1.40001
1.40001
1.40001
1.40001
1.40001
1.40001
1.40001
1.40001
1.40001
1.40001
1.40001
1.40001
1.40001
1.40001
1.40001
1.40001
1.40001
1.40001
1.40001
1.4
1.4
1.40001
1.40004
1.39989
1.39982
3.65949
5.40405
5.40323
5.4371
5.46736
5.49362
5.51602
5.53756
5.55947
5.5817
5.60377
5.62608
5.64811
5.6693
5.68938
5.70864
5.72721
5.74505
5.76222
5.7786
5.79406
5.80864
5.8228
5.83615
5.84861
5.85995
5.87047
5.88044
5.89004
5.89928
5.90623
5.91176
5.91285
5.9239
5.85258
1.40001
1.40001
1.40001
1.40001
1.40001
1.40001
1.40001
1.40001
1.40001
1.40001
1.40001
1.40001
1.40001
1.40001
1.40001
1.40001
1.40001
1.40001
1.40001
1.40001
1.40001
1.40001
1.40001
1.40001
1.40001
1.40001
1.40001
1.40001
1.40001
1.40001
1.40001
1.4
1.4
1.40001
1.40003
1.39993
1.40004
3.24458
5.45158
5.4072
5.45403
5.47989
5.4957
5.51227
5.53262
5.55431
5.57663
5.59937
5.62255
5.64397
5.66324
5.68103
5.69792
5.71422
5.73012
5.74576
5.76102
5.77582
5.79017
5.80393
5.81683
5.82876
5.83946
5.84935
5.85876
5.86786
5.87676
5.88352
5.88893
5.89006
5.90133
5.82858
1.40001
1.40001
1.40001
1.40001
1.40001
1.40001
1.40001
1.40001
1.40001
1.40001
1.40001
1.40001
1.40001
1.40001
1.40001
1.40001
1.40001
1.40001
1.40001
1.40001
1.40001
1.40001
1.40001
1.40001
1.40001
1.40001
1.40001
1.40001
1.40001
1.40001
1.40001
1.40001
1.4
1.4
1.40002
1.39999
1.40002
2.90439
5.35275
5.30705
5.34298
5.38811
5.4218
5.45561
5.4891
5.52154
5.55244
5.58136
5.607
5.62865
5.64726
5.66426
5.6808
5.6971
5.71285
5.72801
5.74261
5.75668
5.77031
5.78331
5.79545
5.80658
5.81652
5.82566
5.83437
5.84285
5.85129
5.85775
5.8629
5.86401
5.87542
5.80095
1.40001
1.40001
1.40001
1.40001
1.40001
1.40001
1.40001
1.40001
1.40001
1.40001
1.40001
1.40001
1.40001
1.40001
1.40001
1.40001
1.40001
1.40001
1.40001
1.40001
1.40001
1.40001
1.40001
1.40001
1.40001
1.40001
1.40001
1.40001
1.40001
1.40001
1.40001
1.40001
1.4
1.4
1.40001
1.40002
1.39998
1.81961
6.0411
5.49606
5.46419
5.47774
5.47388
5.48276
5.49929
5.5217
5.54463
5.56769
5.58841
5.60656
5.62357
5.64109
5.65881
5.67633
5.69311
5.7086
5.72305
5.73664
5.74943
5.76136
5.7723
5.7822
5.79107
5.79923
5.80704
5.81471
5.82246
5.82845
5.83314
5.83417
5.84554
5.76908
1.40001
1.40001
1.40001
1.40001
1.40001
1.40001
1.40001
1.40001
1.40001
1.40001
1.40001
1.40001
1.40001
1.40001
1.40001
1.40001
1.40001
1.40001
1.40001
1.40001
1.40001
1.40001
1.40001
1.40001
1.40001
1.40001
1.40001
1.40001
1.40001
1.40001
1.40001
1.40001
1.4
1.4
1.40001
1.40002
1.39998
1.48731
5.74642
5.54042
5.50816
5.54562
5.54888
5.5515
5.54935
5.54951
5.55403
5.56269
5.57317
5.58694
5.60219
5.61892
5.63701
5.65529
5.67246
5.68815
5.70253
5.71554
5.72724
5.73781
5.74725
5.75564
5.76311
5.76996
5.77652
5.78304
5.78978
5.79505
5.79899
5.7998
5.81081
5.73223
1.40001
1.40001
1.40001
1.40001
1.40001
1.40001
1.40001
1.40001
1.40001
1.40001
1.40001
1.40001
1.40001
1.40001
1.40001
1.40001
1.40001
1.40001
1.40001
1.40001
1.40001
1.40001
1.40001
1.40001
1.40001
1.40001
1.40001
1.40001
1.40001
1.40001
1.40001
1.40001
1.40001
1.4
1.4
1.40002
1.39999
1.40258
5.35555
5.40801
5.444
5.5015
5.52238
5.54462
5.56801
5.58122
5.58387
5.58112
5.57844
5.58091
5.58873
5.60226
5.61885
5.6358
5.65169
5.66652
5.67982
5.69169
5.70239
5.71176
5.71972
5.72647
5.73229
5.73752
5.74247
5.74741
5.75266
5.75682
5.75956
5.75992
5.76994
5.68947
1.40001
1.40001
1.40001
1.40001
1.40001
1.40001
1.40001
1.40001
1.40001
1.40001
1.40001
1.40001
1.40001
1.40001
1.40001
1.40001
1.40001
1.40001
1.40001
1.40001
1.40001
1.40001
1.40001
1.40001
1.40001
1.40001
1.40001
1.40001
1.40001
1.40001
1.40001
1.40001
1.40001
1.4
1.4
1.40002
1.4
1.4
5.00272
5.31829
5.37024
5.42128
5.47098
5.51722
5.54663
5.56732
5.58559
5.59696
5.59553
5.59227
5.59268
5.59876
5.60978
5.6212
5.63291
5.64442
5.655
5.665
5.6743
5.68229
5.68875
5.6939
5.69803
5.70146
5.7044
5.70721
5.71035
5.71277
5.71359
5.71306
5.72101
5.63971
1.40001
1.40001
1.40001
1.40001
1.40001
1.40001
1.40001
1.40001
1.40001
1.40001
1.40001
1.40001
1.40001
1.40001
1.40001
1.40001
1.40001
1.40001
1.40001
1.40001
1.40001
1.40001
1.40001
1.40001
1.40001
1.40001
1.40001
1.40001
1.40001
1.40001
1.40001
1.40001
1.40001
1.4
1.4
1.40002
1.4
1.4
4.517
5.27855
5.32535
5.36431
5.41112
5.45143
5.49322
5.53328
5.55995
5.57874
5.59259
5.60011
5.60311
5.60475
5.61027
5.6145
5.61863
5.62417
5.6299
5.63639
5.64325
5.64924
5.65398
5.65757
5.65999
5.66138
5.66178
5.66176
5.66199
5.66165
5.65976
5.65743
5.66157
5.58314
1.40001
1.40001
1.40001
1.40001
1.40001
1.40001
1.40001
1.40001
1.40001
1.40001
1.40001
1.40001
1.40001
1.40001
1.40001
1.40001
1.40001
1.40001
1.40001
1.40001
1.40001
1.40001
1.40001
1.40001
1.40001
1.40001
1.40001
1.40001
1.40001
1.40001
1.40001
1.40001
1.40001
1.4
1.4
1.40002
1.4
1.39997
3.93542
5.30339
5.31529
5.34524
5.37695
5.41492
5.44927
5.48254
5.51957
5.55185
5.56963
5.5856
5.59956
5.60898
5.61453
5.61399
5.61088
5.60703
5.60538
5.60689
5.61015
5.61348
5.61621
5.61775
5.61781
5.61667
5.614
5.61025
5.60626
5.60154
5.59585
5.5908
5.58913
5.50517
1.40001
1.40001
1.40001
1.40001
1.40001
1.40001
1.40001
1.40001
1.40001
1.40001
1.40001
1.40001
1.40001
1.40001
1.40001
1.40001
1.40001
1.40001
1.40001
1.40001
1.40001
1.40001
1.40001
1.40001
1.40001
1.40001
1.40001
1.40001
1.40001
1.40001
1.40001
1.40001
1.40001
1.4
1.40001
1.40002
1.39998
1.39994
3.37899
5.24059
5.25715
5.29363
5.33196
5.36186
5.38789
5.4222
5.45798
5.49286
5.52567
5.55654
5.57395
5.59117
5.60561
5.60922
5.60512
5.5942
5.58371
5.57891
5.57697
5.57636
5.57575
5.57426
5.57148
5.56708
5.56062
5.55225
5.5429
5.53098
5.49776
5.53212
5.52315
5.49194
1.40001
1.40001
1.40001
1.40001
1.40001
1.40001
1.40001
1.40001
1.40001
1.40001
1.40001
1.40001
1.40001
1.40001
1.40001
1.40001
1.40001
1.40001
1.40001
1.40001
1.40001
1.40001
1.40001
1.40001
1.40001
1.40001
1.40001
1.40001
1.40001
1.40001
1.40001
1.40001
1.40001
1.4
1.40001
1.40002
1.39996
1.40011
2.18965
5.95025
5.41052
5.37065
5.38135
5.38252
5.39732
5.4105
5.42639
5.44646
5.4764
5.50503
5.53361
5.55763
5.57587
5.589
5.5913
5.58214
5.56682
5.55423
5.5454
5.5394
5.53385
5.5279
5.52105
5.51246
5.50107
5.4863
5.46855
5.44528
5.39993
5.43164
5.41143
5.37945
1.40001
1.40001
1.40001
1.40001
1.40001
1.40001
1.40001
1.40001
1.40001
1.40001
1.40001
1.40001
1.40001
1.40001
1.40001
1.40001
1.40001
1.40001
1.40001
1.40001
1.40001
1.40001
1.40001
1.40001
1.40001
1.40001
1.40001
1.40001
1.40001
1.40001
1.40001
1.40001
1.40001
1.4
1.4
1.40001
1.40002
1.39997
1.55442
5.68264
5.48628
5.45571
5.48016
5.45185
5.42233
5.41292
5.42185
5.43812
5.44947
5.46713
5.48667
5.51107
5.53404
5.5532
5.56334
5.56161
5.54925
5.53263
5.51695
5.50436
5.49265
5.48041
5.46765
5.45314
5.43515
5.4121
5.38356
5.34434
5.28025
5.30598
5.23332
5.17504
1.40001
1.40001
1.40001
1.40001
1.40001
1.40001
1.40001
1.40001
1.40001
1.40001
1.40001
1.40001
1.40001
1.40001
1.40001
1.40001
1.40001
1.40001
1.40001
1.40001
1.40001
1.40001
1.40001
1.40001
1.40001
1.40001
1.40001
1.40001
1.40001
1.40001
1.40001
1.40001
1.40001
1.40001
1.4
1.40001
1.40002
1.39999
1.40682
5.10843
5.3723
5.40678
5.45038
5.45896
5.4652
5.4559
5.43788
5.42632
5.43034
5.44244
5.45535
5.46928
5.48619
5.5061
5.52176
5.52856
5.52296
5.50943
5.49089
5.47189
5.45319
5.4334
5.41277
5.39026
5.36351
5.32991
5.28754
5.22714
5.13679
5.13983
4.99026
4.84955
1.40001
1.40001
1.40001
1.40001
1.40001
1.40001
1.40001
1.40001
1.40001
1.40001
1.40001
1.40001
1.40001
1.40001
1.40001
1.40001
1.40001
1.40001
1.40001
1.40001
1.40001
1.40001
1.40001
1.40001
1.40001
1.40001
1.40001
1.40001
1.40001
1.40001
1.40001
1.40001
1.40001
1.40001
1.4
1.40001
1.40001
1.4
1.40004
4.5462
5.20733
5.28984
5.36387
5.42529
5.44021
5.4568
5.46153
5.4526
5.43681
5.42597
5.425
5.43393
5.44721
5.46136
5.47496
5.48503
5.48485
5.47798
5.46184
5.4405
5.41575
5.38753
5.35704
5.32453
5.28692
5.24052
5.18132
5.09765
4.97277
4.92663
4.60926
3.88579
1.40001
1.40001
1.40001
1.40001
1.40001
1.40001
1.40001
1.40001
1.40001
1.40001
1.40001
1.40001
1.40001
1.40001
1.40001
1.40001
1.40001
1.40001
1.40001
1.40001
1.40001
1.40001
1.40001
1.40001
1.40001
1.40001
1.40001
1.40001
1.40001
1.40001
1.40001
1.40001
1.40001
1.40001
1.40001
1.40001
1.40001
1.40001
1.4
3.90894
5.11181
5.24669
5.30978
5.3589
5.39799
5.44267
5.44668
5.45417
5.45149
5.44073
5.42476
5.41467
5.41472
5.42025
5.4293
5.43822
5.43796
5.43551
5.42423
5.40477
5.37784
5.34344
5.30255
5.25777
5.20699
5.14657
5.06817
4.95791
4.80191
4.68467
4.18221
3.19426
1.40001
1.40001
1.40001
1.40001
1.40001
1.40001
1.40001
1.40001
1.40001
1.40001
1.40001
1.40001
1.40001
1.40001
1.40001
1.40001
1.40001
1.40001
1.40001
1.40001
1.40001
1.40001
1.40001
1.40001
1.40001
1.40001
1.40001
1.40001
1.40001
1.40001
1.40001
1.40001
1.40001
1.40001
1.40001
1.40001
1.40001
1.40001
1.39999
3.26757
5.05683
5.16923
5.21141
5.26637
5.30822
5.35521
5.3985
5.4289
5.43144
5.43611
5.42739
5.41311
5.39813
5.38964
5.38774
5.3911
5.39027
5.38677
5.37553
5.3594
5.33414
5.29781
5.24991
5.19241
5.12527
5.05039
4.95611
4.82024
4.63758
4.45897
4.00854
3.22603
1.40001
1.40001
1.40001
1.40001
1.40001
1.40001
1.40001
1.40001
1.40001
1.40001
1.40001
1.40001
1.40001
1.40001
1.40001
1.40001
1.40001
1.40001
1.40001
1.40001
1.40001
1.40001
1.40001
1.40001
1.40001
1.40001
1.40001
1.40001
1.40001
1.40001
1.40001
1.40001
1.40001
1.40001
1.40001
1.4
1.40001
1.40001
1.39999
1.8758
5.55096
5.36898
5.31786
5.29981
5.30478
5.32114
5.34403
5.36805
5.39348
5.40529
5.40966
5.4058
5.39278
5.37384
5.35818
5.34826
5.34396
5.33445
5.32339
5.30625
5.28147
5.24553
5.19524
5.1286
5.04579
4.96403
4.84536
4.6901
4.48901
4.27429
3.83469
3.20024
1.40001
1.40001
1.40001
1.40001
1.40001
1.40001
1.40001
1.40001
1.40001
1.40001
1.40001
1.40001
1.40001
1.40001
1.40001
1.40001
1.40001
1.40001
1.40001
1.40001
1.40001
1.40001
1.40001
1.40001
1.40001
1.40001
1.40001
1.40001
1.40001
1.40001
1.40001
1.40001
1.40001
1.40001
1.40001
1.4
1.40001
1.40001
1.4
1.50594
5.03343
5.45766
5.37775
5.33198
5.31574
5.31927
5.32304
5.33734
5.34808
5.36366
5.37268
5.37606
5.3734
5.35904
5.33698
5.31625
5.29783
5.28554
5.26724
5.24786
5.22456
5.18624
5.13542
5.06569
4.97615
4.88058
4.74477
4.5757
4.35116
4.04582
3.63603
3.12514
1.40001
1.40001
1.40001
1.40001
1.40001
1.40001
1.40001
1.40001
1.40001
1.40001
1.40001
1.40001
1.40001
1.40001
1.40001
1.40001
1.40001
1.40001
1.40001
1.40001
1.40001
1.40001
1.40001
1.40001
1.40001
1.40001
1.40001
1.40001
1.40001
1.40001
1.40001
1.40001
1.40001
1.40001
1.40001
1.4
1.40001
1.40001
1.4
1.403
4.18101
5.36815
5.35948
5.34537
5.3534
5.34217
5.32569
5.31826
5.32053
5.32844
5.33564
5.33877
5.34239
5.3358
5.31722
5.29135
5.26338
5.23558
5.21668
5.1896
5.16028
5.12339
5.07313
5.00292
4.91173
4.80211
4.65708
4.48026
4.25447
3.96855
3.6132
3.20704
1.40001
1.40001
1.40001
1.40001
1.40001
1.40001
1.40001
1.40001
1.40001
1.40001
1.40001
1.40001
1.40001
1.40001
1.40001
1.40001
1.40001
1.40001
1.40001
1.40001
1.40001
1.40001
1.40001
1.40001
1.40001
1.40001
1.40001
1.40001
1.40001
1.40001
1.40001
1.40001
1.40001
1.40001
1.40001
1.4
1.4
1.40001
1.4
1.40002
3.41289
5.24783
5.23067
5.26958
5.29332
5.29827
5.30343
5.29873
5.29432
5.29393
5.29682
5.30128
5.30362
5.30142
5.28969
5.26733
5.23567
5.20004
5.16471
5.13623
5.09899
5.05733
5.00699
4.93913
4.8477
4.73264
4.58437
4.40324
4.18421
3.92143
3.61357
3.27434
1.40001
1.40001
1.40001
1.40001
1.40001
1.40001
1.40001
1.40001
1.40001
1.40001
1.40001
1.40001
1.40001
1.40001
1.40001
1.40001
1.40001
1.40001
1.40001
1.40001
1.40001
1.40001
1.40001
1.40001
1.40001
1.40001
1.40001
1.40001
1.40001
1.40001
1.40001
1.40001
1.40001
1.40001
1.40001
1.40001
1.4
1.40001
1.40001
1.39999
1.96675
5.70122
5.39325
5.33985
5.3086
5.29367
5.29429
5.28824
5.27974
5.27077
5.26565
5.26362
5.26437
5.26262
5.25293
5.23595
5.2082
5.17001
5.12619
5.08616
5.0443
4.99411
4.93893
4.87215
4.78601
4.67145
4.52628
4.34637
4.13656
3.89409
3.61999
3.32951
1.40001
1.40001
1.40001
1.40001
1.40001
1.40001
1.40001
1.40001
1.40001
1.40001
1.40001
1.40001
1.40001
1.40001
1.40001
1.40001
1.40001
1.40001
1.40001
1.40001
1.40001
1.40001
1.40001
1.40001
1.40001
1.40001
1.40001
1.40001
1.40001
1.40001
1.40001
1.40001
1.40001
1.40001
1.40001
1.40001
1.4
1.40001
1.40002
1.4
1.52227
5.1967
5.35822
5.31604
5.31021
5.3027
5.29593
5.2847
5.27004
5.2545
5.24159
5.23178
5.22626
5.22119
5.21254
5.19869
5.17437
5.13985
5.09469
5.04164
4.99886
4.93899
4.87418
4.80141
4.71103
4.60086
4.463
4.29738
4.10242
3.87946
3.63251
3.37739
1.40001
1.40001
1.40001
1.40001
1.40001
1.40001
1.40001
1.40001
1.40001
1.40001
1.40001
1.40001
1.40001
1.40001
1.40001
1.40001
1.40001
1.40001
1.40001
1.40001
1.40001
1.40001
1.40001
1.40001
1.40001
1.40001
1.40001
1.40001
1.40001
1.40001
1.40001
1.40001
1.40001
1.40001
1.40001
1.40001
1.4
1.4
1.40001
1.4
1.40377
4.25785
5.22455
5.27325
5.30454
5.30812
5.30647
5.29859
5.28038
5.25769
5.23408
5.21259
5.19507
5.18415
5.17161
5.15605
5.13605
5.10542
5.06218
5.00935
4.95656
4.89031
4.81962
4.74123
4.65186
4.54556
4.41678
4.26265
4.0814
3.8766
3.651
3.42238
1.40001
1.40001
1.40001
1.40001
1.40001
1.40001
1.40001
1.40001
1.40001
1.40001
1.40001
1.40001
1.40001
1.40001
1.40001
1.40001
1.40001
1.40001
1.40001
1.40001
1.40001
1.40001
1.40001
1.40001
1.40001
1.40001
1.40001
1.40001
1.40001
1.40001
1.40001
1.40001
1.40001
1.40001
1.40001
1.40001
1.4
1.4
1.40001
1.4
1.40002
3.42414
5.12483
5.1509
5.19778
5.2396
5.26673
5.2691
5.26467
5.25129
5.22991
5.2037
5.17692
5.15274
5.13557
5.11593
5.09286
5.06498
5.02732
4.97693
4.91917
4.84926
4.77272
4.68865
4.59839
4.49464
4.3736
4.23082
4.06445
3.87748
3.67276
3.46557
1.40001
1.40001
1.40001
1.40001
1.40001
1.40001
1.40001
1.40001
1.40001
1.40001
1.40001
1.40001
1.40001
1.40001
1.40001
1.40001
1.40001
1.40001
1.40001
1.40001
1.40001
1.40001
1.40001
1.40001
1.40001
1.40001
1.40001
1.40001
1.40001
1.40001
1.40001
1.40001
1.40001
1.40001
1.40001
1.40001
1.4
1.4
1.40001
1.40002
1.39996
1.92755
5.4546
5.29124
5.26905
5.25382
5.24677
5.24227
5.2402
5.23251
5.21766
5.19482
5.16556
5.13421
5.10352
5.0806
5.05329
5.02192
4.98625
4.94037
4.88337
4.81389
4.73468
4.64841
4.55166
4.44794
4.33139
4.1986
4.04718
3.87817
3.69527
3.50442
1.40001
1.40001
1.40001
1.40001
1.40001
1.40001
1.40001
1.40001
1.40001
1.40001
1.40001
1.40001
1.40001
1.40001
1.40001
1.40001
1.40001
1.40001
1.40001
1.40001
1.40001
1.40001
1.40001
1.40001
1.40001
1.40001
1.40001
1.40001
1.40001
1.40001
1.40001
1.40001
1.40001
1.40001
1.40001
1.40001
1.4
1.4
1.4
1.40003
1.39997
1.51674
4.76553
5.27885
5.25271
5.24053
5.23247
5.22449
5.21789
5.20969
5.19812
5.17996
5.15399
5.12103
5.08491
5.04708
5.01961
4.983
4.9434
4.89896
4.84541
4.7797
4.70192
4.61373
4.51614
4.40956
4.29443
4.16837
4.02927
3.87658
3.71338
3.53643
1.40001
1.40001
1.40001
1.40001
1.40001
1.40001
1.40001
1.40001
1.40001
1.40001
1.40001
1.40001
1.40001
1.40001
1.40001
1.40001
1.40001
1.40001
1.40001
1.40001
1.40001
1.40001
1.40001
1.40001
1.40001
1.40001
1.40001
1.40001
1.40001
1.40001
1.40001
1.40001
1.40001
1.40001
1.40001
1.40001
1.40001
1.4
1.4
1.40002
1.4
1.40336
3.79021
5.18674
5.18661
5.18895
5.19609
5.19445
5.18945
5.18229
5.17213
5.1569
5.1354
5.10597
5.0697
5.02869
4.98716
4.94931
4.90535
4.85736
4.80461
4.74357
4.67019
4.58427
4.48773
4.38091
4.26607
4.14343
4.01249
3.87222
3.72273
3.55978
1.40001
1.40001
1.40001
1.40001
1.40001
1.40001
1.40001
1.40001
1.40001
1.40001
1.40001
1.40001
1.40001
1.40001
1.40001
1.40001
1.40001
1.40001
1.40001
1.40001
1.40001
1.40001
1.40001
1.40001
1.40001
1.40001
1.40001
1.40001
1.40001
1.40001
1.40001
1.40001
1.40001
1.40001
1.40001
1.40001
1.40001
1.4
1.4
1.40002
1.39999
1.39999
2.21816
5.5784
5.29689
5.22634
5.20242
5.18385
5.16802
5.15453
5.14268
5.12759
5.10887
5.08282
5.0508
5.01091
4.96544
4.92103
4.87315
4.82092
4.76489
4.70294
4.63285
4.55297
4.46143
4.35877
4.2464
4.12622
3.99976
3.86704
3.7276
3.57796
1.40001
1.40001
1.40001
1.40001
1.40001
1.40001
1.40001
1.40001
1.40001
1.40001
1.40001
1.40001
1.40001
1.40001
1.40001
1.40001
1.40001
1.40001
1.40001
1.40001
1.40001
1.40001
1.40001
1.40001
1.40001
1.40001
1.40001
1.40001
1.40001
1.40001
1.40001
1.40001
1.40001
1.40001
1.40001
1.40001
1.40001
1.4
1.4
1.40001
1.40005
1.39988
1.57412
5.04217
5.28148
5.23997
5.21673
5.19577
5.16936
5.14332
5.11921
5.09987
5.07844
5.05427
5.02672
4.98902
4.94627
4.89798
4.8472
4.79061
4.73121
4.66703
4.59886
4.52165
4.43497
4.33823
4.23137
4.11557
3.99295
3.86518
3.73168
3.59247
1.40001
1.40001
1.40001
1.40001
1.40001
1.40001
1.40001
1.40001
1.40001
1.40001
1.40001
1.40001
1.40001
1.40001
1.40001
1.40001
1.40001
1.40001
1.40001
1.40001
1.40001
1.40001
1.40001
1.40001
1.40001
1.40001
1.40001
1.40001
1.40001
1.40001
1.40001
1.40001
1.40001
1.40001
1.40001
1.40001
1.40001
1.4
1.4
1.4
1.40005
1.39998
1.40625
3.98145
5.17558
5.17972
5.17974
5.17261
5.15778
5.13346
5.10534
5.0768
5.05196
5.02592
4.99731
4.96393
4.92456
4.87791
4.82541
4.7667
4.70426
4.63905
4.56751
4.49295
4.41009
4.31858
4.21777
4.10809
3.99077
3.86725
3.73805
3.60738
1.40001
1.40001
1.40001
1.40001
1.40001
1.40001
1.40001
1.40001
1.40001
1.40001
1.40001
1.40001
1.40001
1.40001
1.40001
1.40001
1.40001
1.40001
1.40001
1.40001
1.40001
1.40001
1.40001
1.40001
1.40001
1.40001
1.40001
1.40001
1.40001
1.40001
1.40001
1.40001
1.40001
1.40001
1.40001
1.40001
1.40001
1.4
1.4
1.4
1.40003
1.39987
1.40078
2.56973
5.45892
5.19774
5.1508
5.14379
5.13459
5.11446
5.08877
5.05972
5.02859
5.00069
4.97038
4.93655
4.89926
4.85579
4.80522
4.74735
4.6837
4.61589
4.54454
4.46712
4.38647
4.29876
4.20357
4.10047
3.98957
3.87194
3.74801
3.6245
1.40001
1.40001
1.40001
1.40001
1.40001
1.40001
1.40001
1.40001
1.40001
1.40001
1.40001
1.40001
1.40001
1.40001
1.40001
1.40001
1.40001
1.40001
1.40001
1.40001
1.40001
1.40001
1.40001
1.40001
1.40001
1.40001
1.40001
1.40001
1.40001
1.40001
1.40001
1.40001
1.40001
1.40001
1.40001
1.40001
1.40001
1.40001
1.4
1.4
1.40002
1.40003
1.3999
1.64954
5.08883
5.20022
5.16751
5.14537
5.12302
5.09952
5.07513
5.04669
5.01431
4.97877
4.94852
4.91235
4.87357
4.83123
4.78338
4.72856
4.66665
4.59838
4.52547
4.44805
4.36611
4.28047
4.18915
4.09172
3.98748
3.87683
3.76012
3.64274
1.40001
1.40001
1.40001
1.40001
1.40001
1.40001
1.40001
1.40001
1.40001
1.40001
1.40001
1.40001
1.40001
1.40001
1.40001
1.40001
1.40001
1.40001
1.40001
1.40001
1.40001
1.40001
1.40001
1.40001
1.40001
1.40001
1.40001
1.40001
1.40001
1.40001
1.40001
1.40001
1.40001
1.40001
1.40001
1.40001
1.40001
1.40001
1.4
1.4
1.40001
1.40004
1.39998
1.41274
4.00826
5.15395
5.12633
5.10982
5.0907
5.07587
5.0577
5.03268
5.00192
4.96703
4.93023
4.89347
4.852
4.80781
4.76045
4.70815
4.64944
4.5836
4.51123
4.43396
4.3517
4.26603
4.17662
4.08292
3.98418
3.88
3.77154
3.65957
1.40001
1.40001
1.40001
1.40001
1.40001
1.40001
1.40001
1.40001
1.40001
1.40001
1.40001
1.40001
1.40001
1.40001
1.40001
1.40001
1.40001
1.40001
1.40001
1.40001
1.40001
1.40001
1.40001
1.40001
1.40001
1.40001
1.40001
1.40001
1.40001
1.40001
1.40001
1.40001
1.40001
1.40001
1.40001
1.40001
1.40001
1.40001
1.4
1.4
1.4
1.40002
1.39998
1.40017
2.3979
5.45097
5.18003
5.09119
5.06818
5.05183
5.03421
5.01161
4.98436
4.95307
4.91596
4.87869
4.8347
4.78809
4.7394
4.68734
4.63072
4.56816
4.49882
4.42318
4.34256
4.25657
4.16816
4.07618
3.98089
3.88179
3.77998
3.67297
1.40001
1.40001
1.40001
1.40001
1.40001
1.40001
1.40001
1.40001
1.40001
1.40001
1.40001
1.40001
1.40001
1.40001
1.40001
1.40001
1.40001
1.40001
1.40001
1.40001
1.40001
1.40001
1.40001
1.40001
1.40001
1.40001
1.40001
1.40001
1.40001
1.40001
1.40001
1.40001
1.40001
1.40001
1.40001
1.40001
1.40001
1.40001
1.40001
1.4
1.4
1.40001
1.40003
1.39993
1.61486
4.94668
5.13199
5.09325
5.07601
5.05416
5.02544
4.99723
4.96956
4.93956
4.90459
4.86569
4.82062
4.77255
4.72216
4.66887
4.61219
4.55138
4.4854
4.41324
4.33527
4.25245
4.1644
4.07348
3.98007
3.88387
3.78615
3.68418
1.40001
1.40001
1.40001
1.40001
1.40001
1.40001
1.40001
1.40001
1.40001
1.40001
1.40001
1.40001
1.40001
1.40001
1.40001
1.40001
1.40001
1.40001
1.40001
1.40001
1.40001
1.40001
1.40001
1.40001
1.40001
1.40001
1.40001
1.40001
1.40001
1.40001
1.40001
1.40001
1.40001
1.40001
1.40001
1.40001
1.40001
1.40001
1.40001
1.4
1.4
1.4
1.40002
1.39998
1.40919
3.81196
5.04675
5.02146
5.02202
5.01292
4.99422
4.97482
4.95324
4.92556
4.89186
4.85336
4.80912
4.76079
4.70904
4.65415
4.59641
4.53554
4.47102
4.40225
4.32816
4.24846
4.16368
4.0746
3.98251
3.88827
3.79309
3.69495
1.40001
1.40001
1.40001
1.40001
1.40001
1.40001
1.40001
1.40001
1.40001
1.40001
1.40001
1.40001
1.40001
1.40001
1.40001
1.40001
1.40001
1.40001
1.40001
1.40001
1.40001
1.40001
1.40001
1.40001
1.40001
1.40001
1.40001
1.40001
1.40001
1.40001
1.40001
1.40001
1.40001
1.40001
1.40001
1.40001
1.40001
1.40001
1.40001
1.40001
1.4
1.4
1.40001
1.40001
1.40002
2.19326
5.24185
5.11762
5.04313
4.99831
4.97465
4.95496
4.93675
4.90885
4.87596
4.83912
4.7971
4.75014
4.69855
4.64294
4.58417
4.52267
4.4583
4.39058
4.31893
4.24258
4.16173
4.07661
3.98772
3.8957
3.80303
3.70676
1.40001
1.40001
1.40001
1.40001
1.40001
1.40001
1.40001
1.40001
1.40001
1.40001
1.40001
1.40001
1.40001
1.40001
1.40001
1.40001
1.40001
1.40001
1.40001
1.40001
1.40001
1.40001
1.40001
1.40001
1.40001
1.40001
1.40001
1.40001
1.40001
1.40001
1.40001
1.40001
1.40001
1.40001
1.40001
1.40001
1.40001
1.40001
1.40001
1.40001
1.4
1.4
1.40001
1.40003
1.39999
1.55024
4.54096
5.02166
4.99334
4.98465
4.97319
4.9524
4.92782
4.89631
4.86205
4.82526
4.78448
4.73913
4.68894
4.63411
4.57531
4.5133
4.44861
4.38127
4.31061
4.23735
4.15999
4.0786
3.99348
3.90493
3.81503
3.72054
1.40001
1.40001
1.40001
1.40001
1.40001
1.40001
1.40001
1.40001
1.40001
1.40001
1.40001
1.40001
1.40001
1.40001
1.40001
1.40001
1.40001
1.40001
1.40001
1.40001
1.40001
1.40001
1.40001
1.40001
1.40001
1.40001
1.40001
1.40001
1.40001
1.40001
1.40001
1.40001
1.40001
1.40001
1.40001
1.40001
1.40001
1.40001
1.40001
1.40001
1.40001
1.4
1.4
1.40002
1.39998
1.40477
3.27075
4.95891
4.94835
4.96116
4.95473
4.9354
4.91155
4.8813
4.84818
4.81173
4.7714
4.72718
4.67876
4.62581
4.56837
4.50692
4.44215
4.37476
4.30524
4.23259
4.15797
4.07958
3.99803
3.91357
3.82711
3.73554
1.40001
1.40001
1.40001
1.40001
1.40001
1.40001
1.40001
1.40001
1.40001
1.40001
1.40001
1.40001
1.40001
1.40001
1.40001
1.40001
1.40001
1.40001
1.40001
1.40001
1.40001
1.40001
1.40001
1.40001
1.40001
1.40001
1.40001
1.40001
1.40001
1.40001
1.40001
1.40001
1.40001
1.40001
1.40001
1.40001
1.40001
1.40001
1.40001
1.40001
1.40001
1.4
1.4
1.40001
1.40002
1.39996
1.87432
4.79771
5.06768
5.01693
4.96859
4.93542
4.90584
4.87467
4.84007
4.80182
4.76036
4.71597
4.66841
4.61711
4.56161
4.50181
4.43809
4.37114
4.30179
4.23038
4.15608
4.08026
4.00152
3.92074
3.83796
3.74976
1.40001
1.40001
1.40001
1.40001
1.40001
1.40001
1.40001
1.40001
1.40001
1.40001
1.40001
1.40001
1.40001
1.40001
1.40001
1.40001
1.40001
1.40001
1.40001
1.40001
1.40001
1.40001
1.40001
1.40001
1.40001
1.40001
1.40001
1.40001
1.40001
1.40001
1.40001
1.40001
1.40001
1.40001
1.40001
1.40001
1.40001
1.40001
1.40001
1.40001
1.40001
1.4
1.4
1.40001
1.40003
1.39998
1.44046
3.7231
5.0018
4.96214
4.93464
4.91512
4.8921
4.86425
4.83057
4.79217
4.7505
4.70605
4.65873
4.60822
4.55419
4.49635
4.43462
4.36927
4.30088
4.23025
4.15728
4.08172
4.00512
3.92737
3.8473
3.7621