/*--------------------------------*- C++ -*----------------------------------*\
  =========                 |
  \\      /  F ield         | OpenFOAM: The Open Source CFD Toolbox
   \\    /   O peration     | Website:  https://openfoam.org
    \\  /    A nd           | Version:  13
     \\/     M anipulation  |
\*---------------------------------------------------------------------------*/
FoamFile
{
    format      ascii;
    class       volScalarField;
    location    "4";
    object      T;
}
// * * * * * * * * * * * * * * * * * * * * * * * * * * * * * * * * * * * * * //

dimensions      [0 0 0 1 0 0 0];

internalField   nonuniform List<scalar> 
36576
(
1
1
1
1
1
1
1
1
1
1
1
1
1
1
1
1
1
1
1
1
1
1
1
1
1
1
1
1
1
1
1
1
1
1
1.00002
0.999875
1.00024
2.67276
2.68327
2.68852
2.6973
2.70745
2.71644
2.72197
2.72543
2.72632
2.72738
2.73069
2.73561
2.74248
2.74926
2.75413
2.75787
2.76035
2.76369
2.76739
2.77136
2.7754
2.77857
2.7813
2.78387
2.78658
2.78925
2.79173
2.79376
2.79523
2.79634
2.79771
2.79917
2.80082
2.80284
2.80869
1
1
1
1
1
1
1
1
1
1
1
1
1
1
1
1
1
1
1
1
1
1
1
1
1
1
1
1
1
1
1
1
0.999999
0.999999
1.00002
0.999943
0.999849
2.67424
2.68487
2.68885
2.69576
2.70459
2.7131
2.71928
2.72418
2.72729
2.72939
2.73249
2.73681
2.74221
2.74826
2.75315
2.75717
2.76023
2.76362
2.76734
2.7712
2.77513
2.77827
2.78101
2.78359
2.7863
2.78897
2.79145
2.79349
2.79499
2.79609
2.79744
2.79888
2.80052
2.80253
2.80833
1
1
1
1
1
1
1
1
1
1
1
1
1
1
1
1
1
1
1
1
1
1
1
1
1
1
1
1
1
1
1
1
1
0.999999
0.999997
1.00006
0.999635
2.67363
2.68857
2.69131
2.69559
2.70074
2.70713
2.71416
2.72103
2.7267
2.73126
2.73486
2.7384
2.74245
2.74691
2.75141
2.75563
2.75947
2.76336
2.76717
2.77093
2.77457
2.77766
2.78043
2.78306
2.78578
2.78843
2.79089
2.79293
2.79446
2.79557
2.79691
2.79833
2.79995
2.80195
2.80771
1
1
1
1
1
1
1
1
1
1
1
1
1
1
1
1
1
1
1
1
1
1
1
1
1
1
1
1
1
1
1
1
1
0.999998
0.999992
1.00011
0.999483
2.6639
2.68953
2.69237
2.6961
2.70015
2.70532
2.71142
2.71821
2.72521
2.7308
2.73545
2.73925
2.74255
2.746
2.74989
2.75413
2.75861
2.76291
2.76683
2.77043
2.77371
2.77672
2.77957
2.78232
2.78502
2.78762
2.79004
2.79209
2.79365
2.79477
2.7961
2.7975
2.79909
2.80108
2.80679
1
1
1
1
1
1
1
1
1
1
1
1
1
1
1
1
1
1
1
1
1
1
1
1
1
1
1
1
1
1
1
1
1
1
0.999991
1.00007
0.999846
2.64763
2.68793
2.69208
2.69674
2.70108
2.70563
2.71107
2.71706
2.72361
2.72988
2.73479
2.73896
2.74242
2.74553
2.74899
2.75318
2.75773
2.76214
2.76612
2.76956
2.77265
2.77557
2.7785
2.78133
2.784
2.78654
2.78892
2.79097
2.79255
2.79367
2.795
2.79638
2.79794
2.79991
2.80557
1
1
1
1
1
1
1
1
1
1
1
1
1
1
1
1
1
1
1
1
1
1
1
1
1
1
1
1
1
1
1
1
1
1
0.999993
1.00002
1
2.62534
2.6847
2.69114
2.69724
2.70229
2.70668
2.71133
2.71654
2.72225
2.72835
2.73365
2.73799
2.74169
2.74489
2.74821
2.75235
2.75677
2.76111
2.76503
2.76838
2.77139
2.77429
2.77723
2.78007
2.7827
2.78519
2.78752
2.78956
2.79115
2.79227
2.79358
2.79495
2.79649
2.79845
2.80404
1
1
1
1
1
1
1
1
1
1
1
1
1
1
1
1
1
1
1
1
1
1
1
1
1
1
1
1
1
1
1
1
1
1
0.999993
1.00002
1.00004
2.59688
2.68184
2.69016
2.69738
2.70301
2.70749
2.71138
2.7159
2.72092
2.72655
2.73207
2.73664
2.74061
2.74402
2.74737
2.75142
2.75566
2.75983
2.76363
2.76693
2.76992
2.77282
2.77574
2.77854
2.78113
2.78355
2.78585
2.78787
2.78944
2.79055
2.79184
2.79319
2.79471
2.79668
2.80219
1
1
1
1
1
1
1
1
1
1
1
1
1
1
1
1
1
1
1
1
1
1
1
1
1
1
1
1
1
1
1
1
1
1
0.999992
1.00004
0.999902
2.56226
2.68026
2.6894
2.69686
2.70262
2.70711
2.71069
2.71485
2.71942
2.72467
2.73036
2.73522
2.7394
2.74299
2.74641
2.75033
2.75433
2.75828
2.76193
2.76517
2.76818
2.7711
2.774
2.77674
2.77927
2.78163
2.78387
2.78585
2.7874
2.78848
2.78976
2.79109
2.7926
2.79457
2.79999
1
1
1
1
1
1
1
1
1
1
1
1
1
1
1
1
1
1
1
1
1
1
1
1
1
1
1
1
1
1
1
1
1
1
0.999994
1.00005
0.99977
2.52142
2.68013
2.68916
2.69596
2.70153
2.7057
2.70907
2.71315
2.71771
2.72311
2.72902
2.73397
2.7382
2.74184
2.7453
2.74894
2.75269
2.75641
2.75993
2.76315
2.76619
2.76914
2.77201
2.77465
2.7771
2.77939
2.78156
2.7835
2.78501
2.78606
2.7873
2.78863
2.79012
2.79211
2.79743
1
1
1
1
1
1
1
1
1
1
1
1
1
1
1
1
1
1
1
1
1
1
1
1
1
1
1
1
1
1
1
1
1
0.999999
1
1.00004
0.999675
2.47167
2.68116
2.68869
2.69394
2.69854
2.70225
2.70652
2.71123
2.71638
2.72216
2.72807
2.73286
2.73697
2.7405
2.7438
2.7472
2.75076
2.75428
2.75769
2.76093
2.76401
2.76696
2.76976
2.77227
2.7746
2.77681
2.77891
2.78078
2.78225
2.78325
2.78446
2.78576
2.78724
2.78926
2.79445
1
1
1
1
1
1
1
1
1
1
1
1
1
1
1
1
1
1
1
1
1
1
1
1
1
1
1
1
1
1
1
1
0.999999
1
1.00002
1.00006
0.999625
2.40226
2.68046
2.68571
2.6896
2.69391
2.69889
2.70446
2.71013
2.71588
2.72191
2.72733
2.73168
2.73535
2.7385
2.74158
2.74482
2.74828
2.75178
2.75523
2.75851
2.7616
2.76457
2.76718
2.76956
2.77174
2.77386
2.77588
2.77768
2.7791
2.78003
2.7812
2.78247
2.78394
2.78598
2.79102
1
1
1
1
1
1
1
1
1
1
1
1
1
1
1
1
1
1
1
1
1
1
1
1
1
1
1
1
1
1
1
1
0.999999
1
1.00002
0.999966
0.999553
2.32484
2.6802
2.68234
2.68683
2.6926
2.69916
2.70623
2.71275
2.71832
2.72293
2.72675
2.7299
2.73266
2.73538
2.73843
2.74189
2.74552
2.7492
2.7527
2.75598
2.75905
2.76189
2.76428
2.76648
2.7685
2.77052
2.77245
2.77416
2.77551
2.77637
2.77747
2.77871
2.78015
2.78222
2.78706
1
1
1
1
1
1
1
1
1
1
1
1
1
1
1
1
1
1
1
1
1
1
1
1
1
1
1
1
1
1
1
1
0.999999
1
1.00001
0.999974
1
2.14911
2.6779
2.67493
2.68102
2.6892
2.69864
2.70667
2.71241
2.71665
2.72004
2.72252
2.72454
2.72724
2.73075
2.7347
2.73883
2.74288
2.7467
2.75021
2.75342
2.7563
2.75884
2.76105
2.76306
2.7649
2.7668
2.7686
2.7702
2.77145
2.7722
2.77323
2.77441
2.77581
2.7779
2.78251
1
1
1
1
1
1
1
1
1
1
1
1
1
1
1
1
1
1
1
1
1
1
1
1
1
1
1
1
1
1
1
1
1
1
1
0.999999
1.00001
2.12555
2.70622
2.70227
2.70327
2.70649
2.71036
2.71367
2.71623
2.71804
2.71915
2.72007
2.72209
2.72511
2.72874
2.73279
2.73686
2.74071
2.74422
2.74742
2.75033
2.75297
2.75532
2.75738
2.75924
2.76094
2.76268
2.76432
2.76575
2.76686
2.76748
2.7684
2.76949
2.77085
2.77293
2.77727
1
1
1
1
1
1
1
1
1
1
1
1
1
1
1
1
1
1
1
1
1
1
1
1
1
1
1
1
1
1
1
1
1
1
0.999999
1
0.999958
1.36138
2.69209
2.67039
2.67861
2.69119
2.69945
2.70554
2.71025
2.71403
2.71688
2.71956
2.72255
2.72607
2.7299
2.73344
2.73643
2.73902
2.74147
2.74409
2.74661
2.74896
2.75114
2.75311
2.7549
2.75653
2.75809
2.75953
2.76077
2.7617
2.76214
2.7629
2.76387
2.76514
2.76721
2.7712
1
1
1
1
1
1
1
1
1
1
1
1
1
1
1
1
1
1
1
1
1
1
1
1
1
1
1
1
1
1
1
1
1
1
1
1
0.999984
1.03023
2.6416
2.62607
2.63153
2.64728
2.66259
2.67718
2.68955
2.70031
2.70893
2.71608
2.72205
2.72708
2.73083
2.73339
2.73513
2.73668
2.73842
2.74036
2.74233
2.74434
2.74638
2.7483
2.75003
2.75157
2.75296
2.75417
2.75517
2.75586
2.75609
2.75661
2.75739
2.75856
2.76055
2.76416
1
1
1
1
1
1
1
1
1
1
1
1
1
1
1
1
1
1
1
1
1
1
1
1
1
1
1
1
1
1
1
1
1
1
1
1
1
1.0007
2.65478
2.64468
2.64195
2.64448
2.64721
2.65343
2.66309
2.67592
2.6897
2.70302
2.71439
2.72231
2.72729
2.73022
2.73184
2.73312
2.73465
2.73624
2.73796
2.73976
2.7415
2.74315
2.74469
2.74606
2.74722
2.74815
2.74884
2.74924
2.74918
2.74938
2.74989
2.7509
2.75272
2.75594
1
1
1
1
1
1
1
1
1
1
1
1
1
1
1
1
1
1
1
1
1
1
1
1
1
1
1
1
1
1
1
1
1
1
1
1
1.00001
0.999989
2.61945
2.66162
2.65835
2.65616
2.65539
2.65612
2.65815
2.66263
2.67098
2.6833
2.69695
2.70856
2.71709
2.72198
2.72465
2.72733
2.72974
2.73195
2.73401
2.73556
2.73681
2.73799
2.73913
2.74012
2.74086
2.74137
2.74167
2.74169
2.74127
2.74102
2.74113
2.74188
2.74334
2.74633
1
1
1
1
1
1
1
1
1
1
1
1
1
1
1
1
1
1
1
1
1
1
1
1
1
1
1
1
1
1
1
1
1
1
1
1
1
0.999994
2.53788
2.67097
2.67238
2.67133
2.66992
2.6679
2.66629
2.66611
2.668
2.67251
2.68061
2.69044
2.70007
2.70782
2.71326
2.71874
2.72329
2.72713
2.73003
2.73168
2.73249
2.73304
2.73353
2.73381
2.73386
2.73378
2.73356
2.73307
2.73216
2.73129
2.73078
2.73106
2.73179
2.73498
1
1
1
1
1
1
1
1
1
1
1
1
1
1
1
1
1
1
1
1
1
1
1
1
1
1
1
1
1
1
1
1
1
1
1
1.00001
1.00002
0.99995
2.39265
2.66323
2.67526
2.67881
2.67941
2.67856
2.67661
2.67442
2.67309
2.67326
2.67497
2.67819
2.68356
2.69042
2.69748
2.70558
2.71334
2.72018
2.72516
2.72746
2.72807
2.72803
2.72763
2.72705
2.72627
2.7254
2.7244
2.7232
2.72158
2.71983
2.71839
2.71775
2.71717
2.72259
1
1
1
1
1
1
1
1
1
1
1
1
1
1
1
1
1
1
1
1
1
1
1
1
1
1
1
1
1
1
1
1
1
1
1
1.00001
1
0.999876
2.27156
2.67653
2.6842
2.68881
2.69136
2.69131
2.68993
2.68721
2.68355
2.68024
2.67838
2.67767
2.67752
2.6789
2.68278
2.69032
2.69982
2.70956
2.71745
2.72123
2.72247
2.72222
2.72129
2.71996
2.71823
2.71626
2.71418
2.71194
2.7093
2.70622
2.6993
2.70605
2.70339
2.71079
1
1
1
1
1
1
1
1
1
1
1
1
1
1
1
1
1
1
1
1
1
1
1
1
1
1
1
1
1
1
1
1
1
1
1
1
0.999987
0.999956
1.60563
2.67329
2.65357
2.66436
2.67918
2.68745
2.6918
2.69254
2.69107
2.68826
2.6851
2.68177
2.679
2.67707
2.67598
2.67875
2.68575
2.69554
2.70552
2.71164
2.71442
2.71484
2.71395
2.71223
2.70965
2.70644
2.70293
2.69916
2.69488
2.68967
2.68023
2.68634
2.68151
2.6874
1
1
1
1
1
1
1
1
1
1
1
1
1
1
1
1
1
1
1
1
1
1
1
1
1
1
1
1
1
1
1
1
1
1
1
1
1
0.999962
1.06749
2.601
2.5932
2.60415
2.63144
2.65527
2.67329
2.6841
2.68943
2.69064
2.68931
2.68646
2.68321
2.67976
2.67622
2.67458
2.6761
2.68195
2.69101
2.69845
2.7032
2.70485
2.70451
2.70306
2.70008
2.69582
2.6907
2.6849
2.67825
2.66996
2.65655
2.66114
2.64629
2.6467
1
1
1
1
1
1
1
1
1
1
1
1
1
1
1
1
1
1
1
1
1
1
1
1
1
1
1
1
1
1
1
1
1
1
1
0.999999
1
1
1.00197
2.61991
2.60395
2.60211
2.60623
2.61744
2.63686
2.65678
2.67238
2.68178
2.68668
2.68783
2.68662
2.68361
2.67917
2.67528
2.67264
2.67292
2.67741
2.68327
2.68863
2.69183
2.69244
2.69163
2.68887
2.684
2.67741
2.66926
2.65942
2.64688
2.62765
2.62727
2.59654
2.57733
1
1
1
1
1
1
1
1
1
1
1
1
1
1
1
1
1
1
1
1
1
1
1
1
1
1
1
1
1
1
1
1
1
1
1
1
1
1
1
2.55218
2.62807
2.62088
2.61785
2.61811
2.62095
2.63015
2.64451
2.65995
2.6725
2.68009
2.68338
2.68311
2.68052
2.67653
2.67214
2.66881
2.66811
2.66979
2.67274
2.67589
2.67751
2.67772
2.67576
2.67071
2.66287
2.65233
2.63868
2.62058
2.59449
2.58284
2.51585
2.35456
1
1
1
1
1
1
1
1
1
1
1
1
1
1
1
1
1
1
1
1
1
1
1
1
1
1
1
1
1
1
1
1
1
1
1
1
1
1
0.999997
2.38482
2.64271
2.63831
2.63286
2.62763
2.62581
2.62745
2.62925
2.63637
2.64843
2.66146
2.67135
2.67667
2.67748
2.67528
2.67111
2.66659
2.66283
2.66056
2.65905
2.65958
2.66037
2.66077
2.65984
2.65547
2.64695
2.63435
2.61685
2.59215
2.55869
2.53139
2.42038
2.17264
1
1
1
1
1
1
1
1
1
1
1
1
1
1
1
1
1
1
1
1
1
1
1
1
1
1
1
1
1
1
1
1
1
1
1
1
1
1
0.99998
2.21821
2.66426
2.66296
2.6583
2.65216
2.64461
2.63801
2.63424
2.63338
2.63412
2.64086
2.65109
2.66131
2.66768
2.67
2.66809
2.66376
2.65908
2.65487
2.6496
2.64594
2.64381
2.64236
2.64092
2.63726
2.6287
2.61512
2.59454
2.56411
2.5246
2.48244
2.37908
2.18083
1
1
1
1
1
1
1
1
1
1
1
1
1
1
1
1
1
1
1
1
1
1
1
1
1
1
1
1
1
1
1
1
1
1
1
1
1
1
0.999996
1.3437
2.61228
2.63537
2.647
2.65096
2.65087
2.6481
2.64374
2.63876
2.63538
2.63391
2.63549
2.64207
2.65052
2.65763
2.66058
2.6589
2.65479
2.64989
2.64365
2.63648
2.63032
2.62524
2.62113
2.61643
2.60801
2.59461
2.57194
2.53756
2.49345
2.4422
2.33719
2.1739
1
1
1
1
1
1
1
1
1
1
1
1
1
1
1
1
1
1
1
1
1
1
1
1
1
1
1
1
1
1
1
1
1
1
1
1
1
1
1
1.03464
2.48498
2.57601
2.60599
2.62671
2.64081
2.64608
2.64576
2.64304
2.63917
2.63535
2.63247
2.63138
2.63413
2.64077
2.64699
2.64996
2.64853
2.64453
2.63845
2.62988
2.62069
2.61145
2.60309
2.59528
2.58593
2.57208
2.54911
2.51397
2.46335
2.39022
2.2879
2.14798
1
1
1
1
1
1
1
1
1
1
1
1
1
1
1
1
1
1
1
1
1
1
1
1
1
1
1
1
1
1
1
1
1
1
1
1
1
1
1
1.00084
2.39895
2.58192
2.58662
2.59581
2.61229
2.62731
2.6363
2.63934
2.63831
2.6352
2.63155
2.62771
2.62512
2.62626
2.63082
2.63596
2.63852
2.63692
2.63233
2.6242
2.61341
2.60107
2.58849
2.57637
2.56417
2.54856
2.52571
2.49178
2.44256
2.3744
2.28562
2.17036
1
1
1
1
1
1
1
1
1
1
1
1
1
1
1
1
1
1
1
1
1
1
1
1
1
1
1
1
1
1
1
1
1
1
1
1
1
1
1
0.999991
2.24381
2.62148
2.60995
2.60619
2.60791
2.61309
2.62175
2.62903
2.63297
2.63291
2.63
2.62592
2.62136
2.61796
2.61757
2.62031
2.62411
2.62578
2.62366
2.61697
2.60676
2.59338
2.57763
2.56116
2.54458
2.52604
2.5025
2.47037
2.42506
2.36395
2.28732
2.19121
1
1
1
1
1
1
1
1
1
1
1
1
1
1
1
1
1
1
1
1
1
1
1
1
1
1
1
1
1
1
1
1
1
1
1
1
1
1
1
0.999984
1.40247
2.6108
2.59159
2.59465
2.59812
2.60189
2.609
2.61622
2.62254
2.62624
2.62626
2.62332
2.61874
2.61371
2.60968
2.60777
2.6087
2.61084
2.61109
2.60693
2.59864
2.58598
2.5695
2.5503
2.52962
2.507
2.4812
2.44953
2.40871
2.35531
2.28996
2.20956
1
1
1
1
1
1
1
1
1
1
1
1
1
1
1
1
1
1
1
1
1
1
1
1
1
1
1
1
1
1
1
1
1
1
1
1
1
1
1
1
1.04224
2.50696
2.55328
2.56523
2.57712
2.58646
2.59479
2.60226
2.60937
2.61513
2.61859
2.61853
2.61532
2.61019
2.60482
2.59982
2.59647
2.59549
2.5956
2.59338
2.58747
2.5768
2.5613
2.54144
2.51811
2.49233
2.46409
2.43196
2.39386
2.34682
2.29094
2.22405
1
1
1
1
1
1
1
1
1
1
1
1
1
1
1
1
1
1
1
1
1
1
1
1
1
1
1
1
1
1
1
1
1
1
1
1
1
1
1
1
1.00109
2.41104
2.56446
2.56326
2.5659
2.56979
2.57551
2.5828
2.59096
2.59885
2.6053
2.6091
2.60916
2.60569
2.60048
2.59426
2.58812
2.58321
2.58022
2.57779
2.57325
2.56477
2.55154
2.53303
2.50964
2.48236
2.45204
2.41891
2.38185
2.33897
2.28989
2.23417
1
1
1
1
1
1
1
1
1
1
1
1
1
1
1
1
1
1
1
1
1
1
1
1
1
1
1
1
1
1
1
1
1
1
1
1
1
1
1
0.999999
0.999991
2.22305
2.59908
2.58968
2.58228
2.57799
2.57542
2.57464
2.57643
2.58142
2.5879
2.59409
2.59799
2.59803
2.59461
2.58904
2.58198
2.57452
2.5679
2.56275
2.55749
2.55011
2.5393
2.5234
2.50217
2.47553
2.44457
2.41028
2.3731
2.33247
2.28774
2.2404
1
1
1
1
1
1
1
1
1
1
1
1
1
1
1
1
1
1
1
1
1
1
1
1
1
1
1
1
1
1
1
1
1
1
1
1
1
1
0.999998
1
0.99995
1.36435
2.57518
2.57193
2.57487
2.5752
2.57329
2.57121
2.56997
2.57024
2.57274
2.57728
2.58233
2.58567
2.58544
2.58189
2.57589
2.56792
2.55912
2.5507
2.54287
2.53455
2.52483
2.51149
2.49305
2.46911
2.43962
2.40566
2.36843
2.32883
2.28661
2.24378
1
1
1
1
1
1
1
1
1
1
1
1
1
1
1
1
1
1
1
1
1
1
1
1
1
1
1
1
1
1
1
1
1
1
1
1
1
0.999999
0.999999
1.00001
0.999997
1.03874
2.43184
2.53686
2.55372
2.56078
2.56498
2.56553
2.56467
2.56331
2.56264
2.56348
2.5662
2.56981
2.57222
2.57146
2.56765
2.56101
2.55206
2.54194
2.53144
2.52081
2.50993
2.49754
2.48158
2.46089
2.43465
2.40309
2.36729
2.32875
2.28817
2.24625
1
1
1
1
1
1
1
1
1
1
1
1
1
1
1
1
1
1
1
1
1
1
1
1
1
1
1
1
1
1
1
1
1
1
1
1
1
1
0.999999
1.00001
1.00001
1.00098
2.28364
2.55813
2.55809
2.5587
2.55977
2.56061
2.55999
2.55842
2.55626
2.55427
2.55343
2.55425
2.55628
2.55765
2.55612
2.55176
2.54445
2.53451
2.52295
2.51044
2.4973
2.48368
2.46854
2.45024
2.42762
2.39988
2.36731
2.33107
2.29206
2.24987
1
1
1
1
1
1
1
1
1
1
1
1
1
1
1
1
1
1
1
1
1
1
1
1
1
1
1
1
1
1
1
1
1
1
1
1
1
1
1
1.00001
1.00002
0.999898
1.53338
2.56528
2.54251
2.546
2.55007
2.55294
2.55408
2.55353
2.55132
2.54821
2.54503
2.54259
2.54167
2.54195
2.54179
2.53949
2.53448
2.5263
2.51526
2.50219
2.48771
2.47247
2.45641
2.43878
2.41846
2.39436
2.36585
2.33307
2.29688
2.25669
1
1
1
1
1
1
1
1
1
1
1
1
1
1
1
1
1
1
1
1
1
1
1
1
1
1
1
1
1
1
1
1
1
1
1
1
1
1
0.999999
0.999999
1.00002
0.999943
1.068
2.44661
2.51219
2.52006
2.52745
2.53556
2.54137
2.54432
2.54423
2.54201
2.53844
2.53441
2.53083
2.52833
2.52689
2.52508
2.52169
2.51577
2.50668
2.49455
2.48023
2.46404
2.44674
2.42855
2.40891
2.38697
2.36189
2.33304
2.30039
2.26335
1
1
1
1
1
1
1
1
1
1
1
1
1
1
1
1
1
1
1
1
1
1
1
1
1
1
1
1
1
1
1
1
1
1
1
1
1
1
0.999999
0.999999
1.00001
1.00002
1.0018
2.31726
2.52947
2.52547
2.52336
2.52319
2.52608
2.52986
2.53263
2.53291
2.53085
2.52725
2.52268
2.51807
2.51423
2.51101
2.50752
2.50285
2.49596
2.48594
2.47283
2.45739
2.43972
2.42071
2.40067
2.37938
2.35624
2.33036
2.30135
2.2686
1
1
1
1
1
1
1
1
1
1
1
1
1
1
1
1
1
1
1
1
1
1
1
1
1
1
1
1
1
1
1
1
1
1
1
1
1
1
0.999999
0.999999
1.00001
0.999945
1.00026
1.74499
2.5603
2.52398
2.52005
2.51836
2.51764
2.51776
2.51931
2.52097
2.52095
2.51886
2.51514
2.51012
2.50465
2.49936
2.49432
2.48919
2.48321
2.47528
2.46426
2.45028
2.43383
2.41502
2.39464
2.37314
2.35053
2.3263
2.29989
2.2716
1
1
1
1
1
1
1
1
1
1
1
1
1
1
1
1
1
1
1
1
1
1
1
1
1
1
1
1
1
1
1
1
1
1
1
1
1
1
1
0.999999
1
1.00001
0.999922
1.12005
2.42317
2.49899
2.50568
2.50833
2.50773
2.5067
2.50684
2.50796
2.50894
2.5085
2.50627
2.5023
2.49677
2.49037
2.48367
2.47699
2.47029
2.46293
2.45378
2.44182
2.42713
2.40987
2.39024
2.36887
2.34625
2.32265
2.29743
2.27221
1
1
1
1
1
1
1
1
1
1
1
1
1
1
1
1
1
1
1
1
1
1
1
1
1
1
1
1
1
1
1
1
1
1
1
1
1
1
1
0.999999
0.999999
1.00001
1.00002
1.00383
2.284
2.50983
2.50556
2.5021
2.49979
2.49792
2.49662
2.49593
2.49601
2.49635
2.49544
2.49294
2.48854
2.4824
2.47512
2.46723
2.45911
2.45085
2.44204
2.43165
2.41887
2.40364
2.38579
2.36564
2.34359
2.32037
2.29576
2.27155
1
1
1
1
1
1
1
1
1
1
1
1
1
1
1
1
1
1
1
1
1
1
1
1
1
1
1
1
1
1
1
1
1
1
1
1
1
1
1
0.999999
0.999999
1
0.999997
1.00001
1.61838
2.53041
2.49613
2.49286
2.4922
2.49158
2.48964
2.48725
2.48544
2.4845
2.48371
2.48202
2.47882
2.47382
2.46712
2.45906
2.45011
2.44066
2.43095
2.42072
2.40915
2.39561
2.37999
2.36181
2.34133
2.31915
2.29539
2.27117
1
1
1
1
1
1
1
1
1
1
1
1
1
1
1
1
1
1
1
1
1
1
1
1
1
1
1
1
1
1
1
1
1
1
1
1
1
1
1
1
0.999999
0.999998
1.00001
0.999944
1.09135
2.39432
2.47085
2.473
2.47653
2.47935
2.47907
2.47762
2.47586
2.47408
2.4725
2.47058
2.46782
2.46389
2.45837
2.45107
2.44225
2.43233
2.42173
2.4107
2.39916
2.38654
2.37234
2.35625
2.33792
2.31752
2.29526
2.27167
1
1
1
1
1
1
1
1
1
1
1
1
1
1
1
1
1
1
1
1
1
1
1
1
1
1
1
1
1
1
1
1
1
1
1
1
1
1
1
1
0.999999
0.999999
1
1
1.00268
2.22004
2.48958
2.48103
2.47603
2.47271
2.47012
2.4686
2.46714
2.46494
2.46235
2.45957
2.45649
2.45292
2.4483
2.44213
2.43422
2.42474
2.41402
2.40248
2.39034
2.37757
2.3639
2.349
2.33252
2.31426
2.29409
2.27214
1
1
1
1
1
1
1
1
1
1
1
1
1
1
1
1
1
1
1
1
1
1
1
1
1
1
1
1
1
1
1
1
1
1
1
1
1
1
1
1
1
0.999999
1
1
0.999955
1.48123
2.47567
2.46545
2.46392
2.46247
2.46214
2.46168
2.46015
2.4574
2.45393
2.45017
2.44619
2.44207
2.43751
2.43203
2.42518
2.41673
2.4067
2.39531
2.38292
2.36976
2.35598
2.34147
2.326
2.30927
2.29123
2.27123
1
1
1
1
1
1
1
1
1
1
1
1
1
1
1
1
1
1
1
1
1
1
1
1
1
1
1
1
1
1
1
1
1
1
1
1
1
1
1
1
1
0.999999
0.999999
1.00001
0.999981
1.0571
2.32737
2.43637
2.44029
2.44603
2.45088
2.45234
2.45178
2.44937
2.44603
2.44197
2.43734
2.43239
2.42718
2.42159
2.41527
2.40778
2.39881
2.38826
2.37625
2.36326
2.34935
2.33477
2.31958
2.30349
2.28695
2.26846
1
1
1
1
1
1
1
1
1
1
1
1
1
1
1
1
1
1
1
1
1
1
1
1
1
1
1
1
1
1
1
1
1
1
1
1
1
1
1
1
1
1
0.999999
1
0.999994
1.00135
2.00757
2.44729
2.44277
2.4453
2.44595
2.44492
2.44365
2.44144
2.43845
2.43451
2.42964
2.42411
2.41817
2.41195
2.40539
2.39824
2.39009
2.3806
2.36957
2.35715
2.3437
2.32918
2.31402
2.29813
2.28216
2.2646
1
1
1
1
1
1
1
1
1
1
1
1
1
1
1
1
1
1
1
1
1
1
1
1
1
1
1
1
1
1
1
1
1
1
1
1
1
1
1
1
1
1
0.999999
0.999998
1.00001
0.999943
1.27236
2.32686
2.4247
2.43466
2.43504
2.43527
2.43462
2.43298
2.43046
2.42684
2.42218
2.41664
2.4104
2.40365
2.3965
2.389
2.38099
2.37218
2.36221
2.35077
2.338
2.32422
2.30939
2.29372
2.27796
2.26077
1
1
1
1
1
1
1
1
1
1
1
1
1
1
1
1
1
1
1
1
1
1
1
1
1
1
1
1
1
1
1
1
1
1
1
1
1
1
1
1
1
1
0.999999
0.999999
1.00001
1
1.01328
2.10599
2.42855
2.42492
2.4259
2.42751
2.42692
2.42549
2.42288
2.41924
2.41476
2.40945
2.4033
2.39638
2.38883
2.38081
2.37241
2.36359
2.35417
2.34375
2.33193
2.31888
2.30498
2.29001
2.27453
2.25756
1
1
1
1
1
1
1
1
1
1
1
1
1
1
1
1
1
1
1
1
1
1
1
1
1
1
1
1
1
1
1
1
1
1
1
1
1
1
1
1
1
1
1
0.999999
1
1
1.00015
1.42676
2.34651
2.40776
2.40897
2.41484
2.41646
2.41637
2.41451
2.4113
2.4072
2.40223
2.39634
2.38954
2.38192
2.37365
2.36485
2.35566
2.34612
2.33607
2.32519
2.31311
2.30012
2.28619
2.27126
2.25481
1
1
1
1
1
1
1
1
1
1
1
1
1
1
1
1
1
1
1
1
1
1
1
1
1
1
1
1
1
1
1
1
1
1
1
1
1
1
1
1
1
1
1
1
1
1.00001
1.00001
1.03629
2.15546
2.39973
2.39961
2.4031
2.40575
2.40618
2.40518
2.4029
2.39947
2.3949
2.3893
2.38278
2.37538
2.36716
2.35825
2.34875
2.33885
2.32865
2.31806
2.30677
2.29478
2.28181
2.26747
2.25177
1
1
1
1
1
1
1
1
1
1
1
1
1
1
1
1
1
1
1
1
1
1
1
1
1
1
1
1
1
1
1
1
1
1
1
1
1
1
1
1
1
1
1
1
0.999999
1
1.00001
1.0006
1.54273
2.363
2.37822
2.38311
2.38962
2.39253
2.39328
2.3927
2.39049
2.38679
2.38186
2.3759
2.36896
2.36108
2.35231
2.3428
2.33269
2.32217
2.31136
2.3002
2.28885
2.27656
2.26301
2.24827
1
1
1
1
1
1
1
1
1
1
1
1
1
1
1
1
1
1
1
1
1
1
1
1
1
1
1
1
1
1
1
1
1
1
1
1
1
1
1
1
1
1
1
1
0.999999
0.999998
1.00001
0.99998
1.06859
2.19356
2.37528
2.37418
2.37672
2.37867
2.38001
2.38028
2.37944
2.37716
2.37348
2.36854
2.36242
2.35512
2.34679
2.33751
2.32743
2.3167
2.30564
2.29428
2.28271
2.27074
2.25787
2.24406
1
1
1
1
1
1
1
1
1
1
1
1
1
1
1
1
1
1
1
1
1
1
1
1
1
1
1
1
1
1
1
1
1
1
1
1
1
1
1
1
1
1
1
1
1
0.999999
1
1
1.00153
1.63394
2.37176
2.35957
2.36115
2.36318
2.3649
2.36606
2.36629
2.3656
2.36372
2.36011
2.35512
2.34878
2.34122
2.33248
2.32266
2.31203
2.30081
2.28925
2.27726
2.2653
2.25262
2.23933
1
1
1
1
1
1
1
1
1
1
1
1
1
1
1
1
1
1
1
1
1
1
1
1
1
1
1
1
1
1
1
1
1
1
1
1
1
1
1
1
1
1
1
1
1
0.999999
0.999998
1.00001
0.999986
1.10697
2.22011
2.35897
2.35183
2.34953
2.34921
2.35024
2.35109
2.35171
2.35138
2.34972
2.34645
2.34148
2.33496
2.32697
2.31772
2.30744
2.2964
2.28486
2.27279
2.2608
2.24802
2.23488
1
1
1
1
1
1
1
1
1
1
1
1
1
1
1
1
1
1
1
1
1
1
1
1
1
1
1
1
1
1
1
1
1
1
1
1
1
1
1
1
1
1
1
1
1
1
0.999999
1
1
1.00299
1.72162
2.37778
2.35053
2.34411
2.33946
2.33742
2.33692
2.33718
2.33741
2.33701
2.33541
2.33226
2.32697
2.32016
2.31183
2.30225
2.29175
2.28061
2.26898
2.25712
2.24443
2.2315
1
1
1
1
1
1
1
1
1
1
1
1
1
1
1
1
1
1
1
1
1
1
1
1
1
1
1
1
1
1
1
1
1
1
1
1
1
1
1
1
1
1
1
1
1
1
0.999999
0.999997
1.00001
0.999979
1.15272
2.22211
2.34499
2.338
2.33278
2.32809
2.32558
2.32387
2.32316
2.32288
2.32221
2.32027
2.31668
2.31104
2.3041
2.29573
2.28626
2.27599
2.26524
2.25382
2.24167
2.22913
1
1
1
1
1
1
1
1
1
1
1
1
1
1
1
1
1
1
1
1
1
1
1
1
1
1
1
1
1
1
1
1
1
1
1
1
1
1
1
1
1
1
1
1
1
1
0.999999
0.999999
1.00001
0.999996
1.0052
1.76696
2.36001
2.3349
2.33005
2.32465
2.31927
2.3148
2.31152
2.30954
2.30806
2.30625
2.30352
2.29936
2.29396
2.28723
2.27931
2.27047
2.2609
2.25044
2.23918
2.22735
1
1
1
1
1
1
1
1
1
1
1
1
1
1
1
1
1
1
1
1
1
1
1
1
1
1
1
1
1
1
1
1
1
1
1
1
1
1
1
1
1
1
1
1
1
1
1
0.999999
0.999998
1.00001
0.999993
1.18183
2.19842
2.32567
2.32428
2.32035
2.3151
2.30944
2.30418
2.29958
2.29538
2.29204
2.289
2.28572
2.28168
2.27674
2.2707
2.26357
2.2554
2.24637
2.23633
2.22535
1
1
1
1
1
1
1
1
1
1
1
1
1
1
1
1
1
1
1
1
1
1
1
1
1
1
1
1
1
1
1
1
1
1
1
1
1
1
1
1
1
1
1
1
1
1
1
0.999999
0.999999
1
1.00001
1.00682
1.73715
2.33272
2.31175
2.31258
2.30989
2.30535
2.29947
2.29263
2.28563
2.28013
2.27567
2.27214
2.26875
2.26502
2.26063
2.25515
2.24875
2.24107
2.23222
2.22224
1
1
1
1
1
1
1
1
1
1
1
1
1
1
1
1
1
1
1
1
1
1
1
1
1
1
1
1
1
1
1
1
1
1
1
1
1
1
1
1
1
1
1
1
1
1
1
1
0.999999
0.999997
1.00001
1.00004
1.17078
2.16356
2.30485
2.30458
2.3035
2.30052
2.29458
2.28695
2.27879
2.27125
2.26563
2.26098
2.2572
2.25365
2.24996
2.24588
2.24071
2.23414
2.22625
2.21723
1
1
1
1
1
1
1
1
1
1
1
1
1
1
1
1
1
1
1
1
1
1
1
1
1
1
1
1
1
1
1
1
1
1
1
1
1
1
1
1
1
1
1
1
1
1
1
1
0.999999
0.999999
1
1.00001
1.00615
1.6906
2.29575
2.29021
2.29105
2.29059
2.2852
2.27871
2.27182
2.26509
2.25892
2.25323
2.24842
2.24422
2.24032
2.23625
2.23145
2.22553
2.21839
2.21017
1
1
1
1
1
1
1
1
1
1
1
1
1
1
1
1
1
1
1
1
1
1
1
1
1
1
1
1
1
1
1
1
1
1
1
1
1
1
1
1
1
1
1
1
1
1
1
1
1
0.999999
0.999998
1.00001
1.00003
1.13527
2.1164
2.29149
2.28687
2.2783
2.27335
2.26938
2.2651
2.25992
2.25405
2.24813
2.24252
2.23731
2.23233
2.22736
2.22204
2.216
2.20917
2.20152
1
1
1
1
1
1
1
1
1
1
1
1
1
1
1
1
1
1
1
1
1
1
1
1
1
1
1
1
1
1
1
1
1
1
1
1
1
1
1
1
1
1
1
1
1
1
1
1
1
0.999999
0.999999
1
1.00001
1.00407
1.6084
2.25767
2.28424
2.25872
2.26084
2.25899
2.25684
2.25355
2.24883
2.2436
2.23792
2.23196
2.22588
2.21972
2.21332
2.20665
2.19966
2.19237
1
1
1
1
1
1
1
1
1
1
1
1
1
1
1
1
1
1
1
1
1
1
1
1
1
1
1
1
1
1
1
1
1
1
1
1
1
1
1
1
1
1
1
1
1
1
1
1
1
1
0.999999
0.999998
1.00001
1
1.0928
2.05191
2.27004
2.25463
2.2572
2.25307
2.25042
2.24698
2.24288
2.23823
2.23289
2.22688
2.22015
2.21295
2.20572
2.19847
2.19117
2.18417
1
1
1
1
1
1
1
1
1
1
1
1
1
1
1
1
1
1
1
1
1
1
1
1
1
1
1
1
1
1
1
1
1
1
1
1
1
1
1
1
1
1
1
1
1
1
1
1
1
1
0.999999
0.999999
1
1.00001
1.00226
1.49562
2.19651
2.23967
2.25514
2.24253
2.24239
2.23919
2.23562
2.23172
2.22686
2.22086
2.21407
2.20682
2.19932
2.19173
2.18449
2.17748
1
1
1
1
1
1
1
1
1
1
1
1
1
1
1
1
1
1
1
1
1
1
1
1
1
1
1
1
1
1
1
1
1
1
1
1
1
1
1
1
1
1
1
1
1
1
1
1
1
1
1
0.999999
1
1.00001
1
1.05073
1.95617
2.24051
2.24067
2.23433
2.23492
2.23216
2.22866
2.22462
2.21967
2.21392
2.20753
2.20067
2.19349
2.18635
2.17922
2.1721
1
1
1
1
1
1
1
1
1
1
1
1
1
1
1
1
1
1
1
1
1
1
1
1
1
1
1
1
1
1
1
1
1
1
1
1
1
1
1
1
1
1
1
1
1
1
1
1
1
1
1
0.999999
0.999999
1
1.00002
1.00094
1.34827
2.11399
2.23345
2.22689
2.22815
2.22584
2.2221
2.21748
2.21225
2.20664
2.20071
2.19448
2.18815
2.18158
2.17468
2.16747
1
1
1
1
1
1
1
1
1
1
1
1
1
1
1
1
1
1
1
1
1
1
1
1
1
1
1
1
1
1
1
1
1
1
1
1
1
1
1
1
1
1
1
1
1
1
1
1
1
1
1
1
0.999999
1
1.00001
1.00001
1.02057
1.73673
2.22638
2.21417
2.21496
2.21366
2.21165
2.20853
2.20431
2.19947
2.19421
2.18891
2.18329
2.17708
2.17028
2.16296
1
1
1
1
1
1
1
1
1
1
1
1
1
1
1
1
1
1
1
1
1
1
1
1
1
1
1
1
1
1
1
1
1
1
1
1
1
1
1
1
1
1
1
1
1
1
1
1
1
1
1
1
1
0.999999
1
1.00001
1.00028
1.17193
2.03815
2.21059
2.20629
2.2045
2.20199
2.19918
2.19591
2.19214
2.18822
2.18372
2.1784
2.17229
2.1655
2.15819
1
1
1
1
1
1
1
1
1
1
1
1
1
1
1
1
1
1
1
1
1
1
1
1
1
1
1
1
1
1
1
1
1
1
1
1
1
1
1
1
1
1
1
1
1
1
1
1
1
1
1
1
1
0.999999
1
1.00001
1.00001
1.0058
1.54678
2.1436
2.20049
2.19791
2.19282
2.18966
2.18733
2.18503
2.1819
2.17773
2.17253
2.16658
2.16004
2.15307
1
1
1
1
1
1
1
1
1
1
1
1
1
1
1
1
1
1
1
1
1
1
1
1
1
1
1
1
1
1
1
1
1
1
1
1
1
1
1
1
1
1
1
1
1
1
1
1
1
1
1
1
1
1
0.999999
0.999998
1.00002
1.00002
1.06756
1.88783
2.19952
2.18737
2.18464
2.18216
2.18003
2.17746
2.17416
2.17005
2.16519
2.15979
2.15396
2.14778
1
1
1
1
1
1
1
1
1
1
1
1
1
1
1
1
1
1
1
1
1
1
1
1
1
1
1
1
1
1
1
1
1
1
1
1
1
1
1
1
1
1
1
1
1
1
1
1
1
1
1
1
1
1
0.999999
0.999999
1
1.00001
1.00141
1.32084
2.05188
2.18157
2.17905
2.17637
2.17301
2.16931
2.16513
2.16096
2.15673
2.15238
2.14764
2.14235
1
1
1
1
1
1
1
1
1
1
1
1
1
1
1
1
1
1
1
1
1
1
1
1
1
1
1
1
1
1
1
1
1
1
1
1
1
1
1
1
1
1
1
1
1
1
1
1
1
1
1
1
1
1
1
0.999999
1
1.00001
1.00002
1.01824
1.65985
2.14298
2.17559
2.16816
2.16355
2.15952
2.15607
2.15257
2.14912
2.14534
2.14105
2.13624
1
1
1
1
1
1
1
1
1
1
1
1
1
1
1
1
1
1
1
1
1
1
1
1
1
1
1
1
1
1
1
1
1
1
1
1
1
1
1
1
1
1
1
1
1
1
1
1
1
1
1
1
1
1
1
1
0.999999
0.999999
1.00001
1.00025
1.12398
1.92966
2.16526
2.15824
2.15574
2.15272
2.14971
2.14643
2.14249
2.13826
2.13387
2.12928
1
1
1
1
1
1
1
1
1
1
1
1
1
1
1
1
1
1
1
1
1
1
1
1
1
1
1
1
1
1
1
1
1
1
1
1
1
1
1
1
1
1
1
1
1
1
1
1
1
1
1
1
1
1
1
1
0.999999
0.999999
1.00001
1.00003
1.00342
1.399
2.04369
2.15118
2.14914
2.14721
2.14372
2.13951
2.13516
2.13085
2.12655
2.12219
1
1
1
1
1
1
1
1
1
1
1
1
1
1
1
1
1
1
1
1
1
1
1
1
1
1
1
1
1
1
1
1
1
1
1
1
1
1
1
1
1
1
1
1
1
1
1
1
1
1
1
1
1
1
1
1
1
0.999999
1
1.00002
1.00003
1.03026
1.69998
2.11989
2.14641
2.13929
2.13515
2.13123
2.12745
2.12368
2.11976
2.11559
1
1
1
1
1
1
1
1
1
1
1
1
1
1
1
1
1
1
1
1
1
1
1
1
1
1
1
1
1
1
1
1
1
1
1
1
1
1
1
1
1
1
1
1
1
1
1
1
1
1
1
1
1
1
1
1
1
0.999999
0.999999
1
1.00002
1.00047
1.15473
1.91992
2.13535
2.12967
2.1267
2.12402
2.12106
2.11759
2.11367
2.10935
1
1
1
1
1
1
1
1
1
1
1
1
1
1
1
1
1
1
1
1
1
1
1
1
1
1
1
1
1
1
1
1
1
1
1
1
1
1
1
1
1
1
1
1
1
1
1
1
1
1
1
1
1
1
1
1
1
1
0.999999
1
1.00001
1.00003
1.00484
1.40931
2.0168
2.12379
2.12119
2.11786
2.11435
2.11074
2.10686
2.10261
1
1
1
1
1
1
1
1
1
1
1
1
1
1
1
1
1
1
1
1
1
1
1
1
1
1
1
1
1
1
1
1
1
1
1
1
1
1
1
1
1
1
1
1
1
1
1
1
1
1
1
1
1
1
1
1
1
1
1
0.999999
1
1.00002
1.00006
1.0328
1.67678
2.08688
2.11769
2.11162
2.10739
2.10357
2.09963
2.09553
1
1
1
1
1
1
1
1
1
1
1
1
1
1
1
1
1
1
1
1
1
1
1
1
1
1
1
1
1
1
1
1
1
1
1
1
1
1
1
1
1
1
1
1
1
1
1
1
1
1
1
1
1
1
1
1
1
1
1
0.999999
0.999999
1.00001
1.00002
1.00053
1.14379
1.88094
2.10571
2.10448
2.10071
2.0967
2.09279
2.08886
1
1
1
1
1
1
1
1
1
1
1
1
1
1
1
1
1
1
1
1
1
1
1
1
1
1
1
1
1
1
1
1
1
1
1
1
1
1
1
1
1
1
1
1
1
1
1
1
1
1
1
1
1
1
1
1
1
1
1
1
0.999999
1
1.00001
1.00003
1.00434
1.36633
1.97018
2.09986
2.09528
2.09097
2.08723
2.0833
1
1
1
1
1
1
1
1
1
1
1
1
1
1
1
1
1
1
1
1
1
1
1
1
1
1
1
1
1
1
1
1
1
1
1
1
1
1
1
1
1
1
1
1
1
1
1
1
1
1
1
1
1
1
1
1
1
1
1
1
1
0.999999
1
1.00002
1.00005
1.02537
1.59959
2.04006
2.08989
2.08585
2.08157
2.07733
1
1
1
1
1
1
1
1
1
1
1
1
1
1
1
1
1
1
1
1
1
1
1
1
1
1
1
1
1
1
1
1
1
1
1
1
1
1
1
1
1
1
1
1
1
1
1
1
1
1
1
1
1
1
1
1
1
1
1
1
1
0.999999
0.999999
1
1.00002
1.00038
1.10218
1.80495
2.07079
2.0836
2.07572
2.07135
1
1
1
1
1
1
1
1
1
1
1
1
1
1
1
1
1
1
1
1
1
1
1
1
1
1
1
1
1
1
1
1
1
1
1
1
1
1
1
1
1
1
1
1
1
1
1
1
1
1
1
1
1
1
1
1
1
1
1
1
1
1
0.999999
1
1.00001
1.00003
1.0026
1.27497
1.91269
2.07456
2.07015
2.06575
1
1
1
1
1
1
1
1
1
1
1
1
1
1
1
1
1
1
1
1
1
1
1
1
1
1
1
1
1
1
1
1
1
1
1
1
1
1
1
1
1
1
1
1
1
1
1
1
1
1
1
1
1
1
1
1
1
1
1
1
1
1
1
0.999999
1
1.00001
1.00004
1.01384
1.47855
1.97872
2.06437
2.05984
1
1
1
1
1
1
1
1
1
1
1
1
1
1
1
1
1
1
1
1
1
1
1
1
1
1
1
1
1
1
1
1
1
1
1
1
1
1
1
1
1
1
1
1
1
1
1
1
1
1
1
1
1
1
1
1
1
1
1
1
1
1
1
0.999999
0.999999
1
1.00001
1.00021
1.05343
1.68096
2.02423
2.05532
1
1
1
1
1
1
1
1
1
1
1
1
1
1
1
1
1
1
1
1
1
1
1
1
1
1
1
1
1
1
1
1
1
1
1
1
1
1
1
1
1
1
1
1
1
1
1
1
1
1
1
1
1
1
1
1
1
1
1
1
1
1
1
1
0.999999
1
1
1.00001
1.00099
1.16009
1.81703
2.04661
1
1
1
1
1
1
1
1
1
1
1
1
1
1
1
1
1
1
1
1
1
1
1
1
1
1
1
1
1
1
1
1
1
1
1
1
1
1
1
1
1
1
1
1
1
1
1
1
1
1
1
1
1
1
1
1
1
1
1
1
1
1
1
1
1
1
0.999998
0.999997
0.999975
1.0052
1.3271
1.91792
1
1
1
1
1
1
1
1
1
1
1
1
1
1
1
1
1
1
1
1
1
1
1
1
1
1
1
1
1
1
1
1
1
1
1
1
1
1
1
1
1
1
1
1
1
1
1
1
1
1
1
1
1
1
1
1
1
1
1
1
1
1
1
1
1
1
0.999999
0.99998
0.999953
0.999934
1.02223
1.50677
1
1
1
1
1
1
1
1
1
1
1
1
1
1
1
1
1
1
1
1
1
1
1
1
1
1
1
1
1
1
1
1
1
1
1
1
1
1
1
1
1
1
1
1
1
1
1
1
1
1
1
1
1
1
1
1
1
1
1
1
1
1
1
1
1
1
1
0.999978
0.999964
1.00028
1.00019
1.0586
1
1
1
1
1
1
1
1
1
1
1
1
1
1
1
1
1
1
1
1
1
1
1
1
1
1
1
1
1
1
1
1
1
1
1
1
1
1
1
1
1
1
1
1
1
1
1
1
1
1
1
1
1
1
1
1
1
1
1
1
1
1
1
1
1
1
0.999998
0.999983
1
1.00019
0.99749
1.02464
1
1
1
1
1
1
1
1
1
1
1
1
1
1
1
1
1
1
1
1
1
1
1
1
1
1
1
1
1
1
1
1
1
1
1
1
1
1
1
1
1
1
1
1
1
1
1
1
1
1
1
1
1
1
1
1
1
1
1
1
1
1
1
1
1
1
0.999995
0.999977
0.999975
1.00042
0.99894
0.991394
1
1
1
1
1
1
1
1
1
1
1
1
1
1
1
1
1
1
1
1
1
1
1
1
1
1
1
1
1
1
1
1
1
1
1
1
1
1
1
1
1
1
1
1
1
1
1
1
1
1
1
1
1
1
1
1
1
1
1
1
1
1
1
1
1
1
0.999999
0.999965
0.999952
1.00039
1.00033
1.00383
1
1
1
1
1
1
1
1
1
1
1
1
1
1
1
1
1
1
1
1
1
1
1
1
1
1
1
1
1
1
1
1
1
1
1
1
1
1
1
1
1
1
1
1
1
1
1
1
1
1
1