/*--------------------------------*- C++ -*----------------------------------*\
  =========                 |
  \\      /  F ield         | OpenFOAM: The Open Source CFD Toolbox
   \\    /   O peration     | Website:  https://openfoam.org
    \\  /    A nd           | Version:  13
     \\/     M anipulation  |
\*---------------------------------------------------------------------------*/
FoamFile
{
    format      ascii;
    class       volVectorField;
    location    "4";
    object      U;
}
// * * * * * * * * * * * * * * * * * * * * * * * * * * * * * * * * * * * * * //

dimensions      [0 1 -1 0 0 0 0];

internalField   nonuniform List<vector> 
36576
(
(3 2.93318e-17 0)
(3 1.0965e-16 0)
(3 8.86782e-17 0)
(3 1.65645e-16 0)
(3 2.11613e-16 0)
(3 -4.21234e-17 0)
(3 9.7854e-18 0)
(3 -3.66134e-17 0)
(3 -1.02573e-16 0)
(3 -1.09523e-16 0)
(3 -1.26668e-17 0)
(3 -2.0004e-16 0)
(3 -1.53315e-16 0)
(3 -1.11388e-16 0)
(3 -1.24157e-16 0)
(3 9.72661e-17 0)
(3 -1.05972e-16 0)
(3 2.12886e-16 0)
(3 2.01703e-16 0)
(3 3.25995e-16 0)
(3 5.47432e-15 0)
(3 1.60677e-15 0)
(3 -6.5571e-15 0)
(3 -2.57229e-14 0)
(3 4.67423e-14 0)
(3 1.31335e-12 0)
(3 9.70911e-12 0)
(3 4.47117e-11 0)
(3 1.08966e-10 0)
(3 -1.50198e-10 0)
(3 -2.94762e-09 0)
(3 -8.93083e-09 0)
(3 -6.90898e-09 0)
(2.99999 4.79141e-07 0)
(2.99997 9.42545e-07 0)
(3.00021 -1.95701e-06 0)
(2.99984 -2.48057e-05 0)
(0.793792 0.001598 0)
(0.757109 0.00629567 0)
(0.73962 0.0109702 0)
(0.712786 0.0118031 0)
(0.687177 0.0110041 0)
(0.663557 0.00916424 0)
(0.643735 0.00672215 0)
(0.627772 0.00521493 0)
(0.61361 0.00526047 0)
(0.599015 0.00609338 0)
(0.58215 0.00817207 0)
(0.561429 0.0106885 0)
(0.537708 0.0114901 0)
(0.513656 0.0111423 0)
(0.490735 0.0100546 0)
(0.469548 0.00899121 0)
(0.449389 0.00881994 0)
(0.429037 0.00916048 0)
(0.407752 0.0100156 0)
(0.385119 0.0108118 0)
(0.361832 0.011093 0)
(0.338562 0.0111165 0)
(0.315396 0.0111634 0)
(0.292112 0.0113435 0)
(0.268379 0.0116424 0)
(0.244099 0.011922 0)
(0.219385 0.0121316 0)
(0.194366 0.0123057 0)
(0.169109 0.0124669 0)
(0.143656 0.0126151 0)
(0.117975 0.0127449 0)
(0.0921899 0.01285 0)
(0.06587 0.0129499 0)
(0.0401184 0.0129367 0)
(0.00943008 0.0131437 0)
(3 -2.99715e-18 0)
(3 -1.74441e-17 0)
(3 1.57009e-16 0)
(3 2.92052e-16 0)
(3 2.67911e-16 0)
(3 2.92618e-16 0)
(3 1.42573e-16 0)
(3 -1.27335e-16 0)
(3 -2.24524e-16 0)
(3 1.33675e-18 0)
(3 -8.40199e-17 0)
(3 -3.94659e-16 0)
(3 -2.20147e-16 0)
(3 -1.2322e-16 0)
(3 1.24679e-16 0)
(3 2.79395e-16 0)
(3 2.82636e-16 0)
(3 2.83522e-16 0)
(3 8.17329e-16 0)
(3 3.42198e-15 0)
(3 1.69318e-14 0)
(3 7.9119e-14 0)
(3 3.44471e-13 0)
(3 1.54717e-12 0)
(3 7.40551e-12 0)
(3 3.43008e-11 0)
(3 1.43358e-10 0)
(3 5.45907e-10 0)
(3 1.79706e-09 0)
(3 3.821e-09 0)
(3 -4.3823e-09 0)
(3 -7.3024e-08 0)
(3 -1.06096e-07 0)
(3 1.1865e-06 0)
(2.99997 4.11685e-06 0)
(3.00012 -4.6858e-05 0)
(3.00006 -4.56595e-05 0)
(0.794148 0.00840036 0)
(0.752473 0.0218321 0)
(0.737587 0.030187 0)
(0.71645 0.0326862 0)
(0.693899 0.031314 0)
(0.671484 0.027935 0)
(0.649991 0.0227944 0)
(0.630355 0.0187326 0)
(0.612423 0.0184262 0)
(0.594899 0.0200899 0)
(0.576861 0.0245805 0)
(0.55743 0.0301282 0)
(0.536535 0.0324414 0)
(0.515006 0.0319459 0)
(0.493519 0.0299774 0)
(0.47224 0.0279107 0)
(0.451085 0.027599 0)
(0.429697 0.0285115 0)
(0.407721 0.0306237 0)
(0.385039 0.0325513 0)
(0.362051 0.0333418 0)
(0.339047 0.0335479 0)
(0.315986 0.0338268 0)
(0.292666 0.0344459 0)
(0.268853 0.0353282 0)
(0.244525 0.0361326 0)
(0.219792 0.0367564 0)
(0.194752 0.0372883 0)
(0.169459 0.0377802 0)
(0.143955 0.0382268 0)
(0.118213 0.0386176 0)
(0.092367 0.0389367 0)
(0.0659896 0.0392454 0)
(0.0401841 0.039211 0)
(0.00944576 0.0398617 0)
(3 -1.76409e-17 0)
(3 -9.37003e-18 0)
(3 2.58054e-17 0)
(3 -1.48321e-16 0)
(3 -2.49855e-16 0)
(3 2.01908e-16 0)
(3 1.11789e-16 0)
(3 -2.16448e-16 0)
(3 -3.13107e-16 0)
(3 -2.12675e-16 0)
(3 -2.98371e-16 0)
(3 -9.56759e-17 0)
(3 -8.9479e-18 0)
(3 -3.02125e-17 0)
(3 -2.18838e-16 0)
(3 1.13712e-16 0)
(3 2.62726e-16 0)
(3 1.41308e-16 0)
(3 1.4875e-15 0)
(3 5.63766e-15 0)
(3 3.61525e-14 0)
(3 1.81469e-13 0)
(3 7.55306e-13 0)
(3 3.35982e-12 0)
(3 1.51958e-11 0)
(3 6.81682e-11 0)
(3 2.90267e-10 0)
(3 1.0339e-09 0)
(3 2.76648e-09 0)
(3 3.16935e-09 0)
(3 -2.30428e-08 0)
(3 -1.78355e-07 0)
(3 -4.52009e-07 0)
(3 9.80131e-07 0)
(2.99999 1.04713e-05 0)
(2.99993 -5.27688e-05 0)
(3.00026 -5.57948e-05 0)
(0.799664 0.0208749 0)
(0.744282 0.0352083 0)
(0.732947 0.0437492 0)
(0.718352 0.0485853 0)
(0.700795 0.0491239 0)
(0.680896 0.0465912 0)
(0.65928 0.0412138 0)
(0.63701 0.0359335 0)
(0.615404 0.0348655 0)
(0.594595 0.0364017 0)
(0.574678 0.0413137 0)
(0.555348 0.0478702 0)
(0.535971 0.0511665 0)
(0.516124 0.0509648 0)
(0.495769 0.049178 0)
(0.474692 0.0471544 0)
(0.453012 0.0470596 0)
(0.430924 0.0484489 0)
(0.40842 0.0513826 0)
(0.385649 0.0539985 0)
(0.362837 0.05519 0)
(0.339999 0.0556905 0)
(0.316995 0.0563377 0)
(0.293626 0.0574727 0)
(0.269735 0.0589295 0)
(0.24535 0.0602266 0)
(0.220572 0.0612572 0)
(0.195476 0.0621599 0)
(0.170109 0.0629993 0)
(0.144515 0.0637537 0)
(0.118669 0.0644073 0)
(0.0927164 0.0649375 0)
(0.06623 0.065453 0)
(0.040316 0.0654021 0)
(0.00947606 0.0665022 0)
(3 8.69592e-18 0)
(3 3.50273e-18 0)
(3 -1.02052e-16 0)
(3 -2.58414e-16 0)
(3 -1.22369e-16 0)
(3 -1.71874e-16 0)
(3 7.08398e-18 0)
(3 1.85114e-16 0)
(3 8.7882e-17 0)
(3 1.7965e-16 0)
(3 2.78498e-16 0)
(3 7.02066e-17 0)
(3 -1.55462e-16 0)
(3 1.18683e-16 0)
(3 -1.07618e-15 0)
(3 -8.03495e-16 0)
(3 -2.53796e-16 0)
(3 -3.80128e-16 0)
(3 -1.89076e-17 0)
(3 6.0995e-15 0)
(3 4.39163e-14 0)
(3 1.95969e-13 0)
(3 8.22753e-13 0)
(3 3.64695e-12 0)
(3 1.60486e-11 0)
(3 6.97148e-11 0)
(3 2.9362e-10 0)
(3 1.17614e-09 0)
(3 3.93761e-09 0)
(3 9.96879e-09 0)
(3 9.43066e-09 0)
(3 -7.12239e-08 0)
(3 -4.39297e-07 0)
(3 -8.25942e-07 0)
(3.00001 4.62158e-06 0)
(2.99983 1.80661e-06 0)
(3.00042 -8.28953e-07 0)
(0.828514 0.0435087 0)
(0.740745 0.0471727 0)
(0.7298 0.0532375 0)
(0.717294 0.0598069 0)
(0.70226 0.0638898 0)
(0.684187 0.0634834 0)
(0.663596 0.0603614 0)
(0.640844 0.056044 0)
(0.617569 0.0543689 0)
(0.595089 0.0552344 0)
(0.57398 0.059044 0)
(0.554608 0.0648666 0)
(0.536077 0.0684482 0)
(0.517204 0.0688095 0)
(0.497488 0.0678 0)
(0.47655 0.0666729 0)
(0.454588 0.0670803 0)
(0.432048 0.0690423 0)
(0.409239 0.0724355 0)
(0.386514 0.0753841 0)
(0.363911 0.0769104 0)
(0.341239 0.077819 0)
(0.318288 0.0789591 0)
(0.294876 0.0806733 0)
(0.270928 0.0826868 0)
(0.2465 0.0844559 0)
(0.221677 0.0859019 0)
(0.196512 0.0872007 0)
(0.171046 0.0884106 0)
(0.145326 0.089488 0)
(0.119337 0.0904129 0)
(0.0932297 0.0911591 0)
(0.0665858 0.091887 0)
(0.0405164 0.0918231 0)
(0.00952271 0.0933873 0)
(3 2.12046e-17 0)
(3 -5.73185e-17 0)
(3 -1.78023e-17 0)
(3 -2.27462e-18 0)
(3 1.34663e-16 0)
(3 -2.02585e-16 0)
(3 -5.71204e-16 0)
(3 -5.57093e-16 0)
(3 2.29369e-17 0)
(3 3.34151e-16 0)
(3 4.80788e-16 0)
(3 4.46659e-16 0)
(3 6.21385e-16 0)
(3 1.51214e-17 0)
(3 -5.69212e-16 0)
(3 -1.2209e-15 0)
(3 -1.221e-15 0)
(3 -7.98417e-16 0)
(3 8.51113e-16 0)
(3 4.91484e-15 0)
(3 2.35603e-14 0)
(3 1.08024e-13 0)
(3 5.62708e-13 0)
(3 2.48333e-12 0)
(3 1.05515e-11 0)
(3 4.50428e-11 0)
(3 1.90776e-10 0)
(3 7.78107e-10 0)
(3 3.01444e-09 0)
(3 9.77472e-09 0)
(3 2.48734e-08 0)
(3 1.94777e-08 0)
(3 -2.25362e-07 0)
(3 -1.6023e-06 0)
(3.00002 -1.41758e-06 0)
(2.99989 2.72751e-05 0)
(3.0001 -3.81322e-06 0)
(0.872564 0.0659159 0)
(0.74587 0.0608867 0)
(0.731439 0.0637041 0)
(0.71607 0.070642 0)
(0.69988 0.0773895 0)
(0.68191 0.079573 0)
(0.662157 0.0785601 0)
(0.640709 0.0760575 0)
(0.618231 0.0745092 0)
(0.595959 0.074747 0)
(0.574749 0.0771526 0)
(0.55516 0.0816274 0)
(0.536711 0.0850194 0)
(0.518119 0.086173 0)
(0.498538 0.0861463 0)
(0.477624 0.0862823 0)
(0.455585 0.0873916 0)
(0.432872 0.0899059 0)
(0.410071 0.0934773 0)
(0.387564 0.0965368 0)
(0.365229 0.0984116 0)
(0.342743 0.0998556 0)
(0.319848 0.101612 0)
(0.29641 0.103951 0)
(0.272426 0.106503 0)
(0.24797 0.108737 0)
(0.2231 0.110624 0)
(0.19785 0.112356 0)
(0.17226 0.113966 0)
(0.146386 0.115387 0)
(0.120215 0.116597 0)
(0.0939136 0.11757 0)
(0.067067 0.118521 0)
(0.0407951 0.118453 0)
(0.00958861 0.120504 0)
(3 1.20554e-17 0)
(3 9.17677e-18 0)
(3 -4.47344e-20 0)
(3 6.084e-17 0)
(3 2.77195e-17 0)
(3 -2.26041e-17 0)
(3 -2.62184e-16 0)
(3 -6.30542e-16 0)
(3 -5.51621e-16 0)
(3 -5.36786e-16 0)
(3 -4.87785e-16 0)
(3 -1.32272e-16 0)
(3 3.57577e-16 0)
(3 -2.45779e-16 0)
(3 2.4278e-16 0)
(3 -8.98e-17 0)
(3 -1.68218e-15 0)
(3 -1.02366e-15 0)
(3 5.63134e-16 0)
(3 3.93355e-15 0)
(3 8.54746e-15 0)
(3 5.04559e-14 0)
(3 2.40209e-13 0)
(3 9.25799e-13 0)
(3 3.71659e-12 0)
(3 1.58652e-11 0)
(3 7.10318e-11 0)
(3 3.22452e-10 0)
(3 1.41506e-09 0)
(3 5.14577e-09 0)
(3 1.56333e-08 0)
(3 3.31493e-08 0)
(3 -4.85141e-08 0)
(3 -1.0022e-06 0)
(3.00001 -1.95729e-07 0)
(2.99996 4.20148e-06 0)
(3.00003 3.60322e-05 0)
(0.92897 0.0834182 0)
(0.755378 0.0770034 0)
(0.735805 0.0782354 0)
(0.715412 0.0842874 0)
(0.696176 0.0915859 0)
(0.677721 0.0951013 0)
(0.658991 0.0953416 0)
(0.63941 0.094455 0)
(0.618723 0.0937488 0)
(0.597503 0.0939646 0)
(0.576556 0.0955152 0)
(0.556647 0.0987217 0)
(0.537766 0.101694 0)
(0.518966 0.103431 0)
(0.499314 0.104531 0)
(0.478418 0.105862 0)
(0.456441 0.107839 0)
(0.433811 0.110786 0)
(0.411219 0.114353 0)
(0.388994 0.117444 0)
(0.366907 0.119741 0)
(0.344568 0.12185 0)
(0.321709 0.124336 0)
(0.298249 0.127328 0)
(0.274245 0.130402 0)
(0.24977 0.133107 0)
(0.224849 0.135473 0)
(0.199499 0.137683 0)
(0.173764 0.139732 0)
(0.147705 0.141526 0)
(0.121319 0.143043 0)
(0.0947814 0.144261 0)
(0.0676859 0.145452 0)
(0.0411639 0.145391 0)
(0.00967699 0.147959 0)
(3 -4.07683e-17 0)
(3 -3.33958e-17 0)
(3 2.75471e-19 0)
(3 1.82362e-16 0)
(3 -9.18587e-17 0)
(3 -5.82931e-16 0)
(3 -5.56869e-16 0)
(3 -3.79365e-16 0)
(3 -3.69247e-16 0)
(3 -4.04151e-16 0)
(3 -2.4112e-16 0)
(3 6.99261e-17 0)
(3 2.8912e-16 0)
(3 4.64229e-16 0)
(3 3.94922e-17 0)
(3 7.30838e-17 0)
(3 -8.05176e-16 0)
(3 -5.43593e-16 0)
(3 -5.77347e-15 0)
(3 -6.01978e-15 0)
(3 -8.33427e-15 0)
(3 -1.63586e-14 0)
(3 -1.60854e-13 0)
(3 -8.56892e-13 0)
(3 -3.76636e-12 0)
(3 -1.53174e-11 0)
(3 -5.81329e-11 0)
(3 -2.06097e-10 0)
(3 -6.8364e-10 0)
(3 -1.83495e-09 0)
(3 -3.39311e-09 0)
(3 -5.71473e-10 0)
(3 8.33755e-09 0)
(3 4.84045e-08 0)
(3.00002 1.37852e-06 0)
(2.99996 -1.37239e-05 0)
(3.00004 1.46274e-05 0)
(0.99998 0.0948193 0)
(0.762476 0.0945553 0)
(0.738124 0.0967509 0)
(0.714195 0.1016 0)
(0.69291 0.106978 0)
(0.674147 0.109731 0)
(0.656585 0.110455 0)
(0.638777 0.110753 0)
(0.619856 0.111467 0)
(0.599691 0.112523 0)
(0.578984 0.114046 0)
(0.558684 0.116405 0)
(0.539128 0.118873 0)
(0.519842 0.120934 0)
(0.500023 0.122951 0)
(0.479213 0.125355 0)
(0.457443 0.128184 0)
(0.435107 0.131487 0)
(0.412843 0.134997 0)
(0.390901 0.138154 0)
(0.369007 0.140957 0)
(0.34676 0.143844 0)
(0.323912 0.147137 0)
(0.300438 0.15079 0)
(0.276429 0.154374 0)
(0.251939 0.157571 0)
(0.22696 0.160464 0)
(0.201493 0.163205 0)
(0.175589 0.165737 0)
(0.149314 0.167943 0)
(0.122674 0.169801 0)
(0.0958575 0.171292 0)
(0.0684628 0.172747 0)
(0.0416377 0.172707 0)
(0.00979179 0.175831 0)
(3 -1.64238e-18 0)
(3 -2.27885e-17 0)
(3 -1.13176e-16 0)
(3 2.37581e-17 0)
(3 -2.43479e-17 0)
(3 -2.3108e-16 0)
(3 -1.16886e-16 0)
(3 -1.40587e-17 0)
(3 1.88071e-16 0)
(3 2.72849e-16 0)
(3 1.89276e-16 0)
(3 3.44832e-17 0)
(3 -1.97387e-16 0)
(3 -4.05986e-16 0)
(3 -1.8015e-17 0)
(3 2.70794e-16 0)
(3 9.60994e-16 0)
(3 8.52714e-16 0)
(3 2.97246e-16 0)
(3 -6.56448e-15 0)
(3 -2.76155e-14 0)
(3 -1.56679e-13 0)
(3 -6.85591e-13 0)
(3 -2.93847e-12 0)
(3 -1.23077e-11 0)
(3 -5.11502e-11 0)
(3 -2.09868e-10 0)
(3 -8.49468e-10 0)
(3 -3.26139e-09 0)
(3 -1.02966e-08 0)
(3 -2.39334e-08 0)
(3 -1.82776e-08 0)
(3 1.64797e-07 0)
(3 8.81846e-07 0)
(3.00002 6.78969e-07 0)
(2.99992 -1.14458e-05 0)
(3.00017 2.37906e-05 0)
(1.08245 0.101649 0)
(0.764721 0.115098 0)
(0.737506 0.118073 0)
(0.713549 0.120759 0)
(0.692261 0.122732 0)
(0.673836 0.123634 0)
(0.656981 0.124208 0)
(0.640059 0.125535 0)
(0.621933 0.128096 0)
(0.602088 0.130725 0)
(0.581286 0.132763 0)
(0.560588 0.134705 0)
(0.54045 0.136676 0)
(0.520737 0.138768 0)
(0.500837 0.141378 0)
(0.480237 0.144669 0)
(0.458832 0.148266 0)
(0.436935 0.151893 0)
(0.415062 0.155404 0)
(0.393378 0.158737 0)
(0.371618 0.162137 0)
(0.349414 0.165884 0)
(0.326559 0.170025 0)
(0.303076 0.174332 0)
(0.279067 0.178429 0)
(0.254554 0.182152 0)
(0.229497 0.18563 0)
(0.203889 0.18896 0)
(0.177784 0.192029 0)
(0.151257 0.194697 0)
(0.124321 0.196938 0)
(0.0971734 0.198743 0)
(0.0694225 0.200491 0)
(0.0422335 0.200494 0)
(0.00993728 0.204219 0)
(3 -2.20323e-17 0)
(3 -3.45721e-18 0)
(3 -7.88789e-17 0)
(3 5.4563e-17 0)
(3 2.43189e-16 0)
(3 7.58803e-16 0)
(3 7.51278e-16 0)
(3 4.7695e-16 0)
(3 2.96043e-16 0)
(3 4.98082e-16 0)
(3 3.64058e-16 0)
(3 -1.11569e-16 0)
(3 -3.99206e-16 0)
(3 -1.4769e-16 0)
(3 -2.46353e-16 0)
(3 4.95463e-16 0)
(3 9.00944e-16 0)
(3 6.03246e-16 0)
(3 5.15397e-15 0)
(3 1.1279e-15 0)
(3 -3.59529e-14 0)
(3 -2.33866e-13 0)
(3 -1.07787e-12 0)
(3 -4.63641e-12 0)
(3 -1.9637e-11 0)
(3 -8.37509e-11 0)
(3 -3.5691e-10 0)
(3 -1.46769e-09 0)
(3 -5.49004e-09 0)
(3 -1.48852e-08 0)
(3 -2.62867e-08 0)
(3 3.45145e-08 0)
(3 5.24038e-07 0)
(3 9.43499e-07 0)
(3.00001 -5.80395e-06 0)
(2.99991 5.51558e-06 0)
(3.00027 6.49708e-06 0)
(1.17294 0.111687 0)
(0.762763 0.135807 0)
(0.735903 0.138732 0)
(0.714245 0.139119 0)
(0.694085 0.137991 0)
(0.676379 0.137114 0)
(0.659763 0.13751 0)
(0.642728 0.139975 0)
(0.624119 0.144688 0)
(0.60372 0.149105 0)
(0.582564 0.151728 0)
(0.561675 0.153369 0)
(0.54139 0.154834 0)
(0.521655 0.156732 0)
(0.501943 0.159677 0)
(0.481713 0.163692 0)
(0.460778 0.167984 0)
(0.439387 0.171959 0)
(0.417918 0.175604 0)
(0.396466 0.179259 0)
(0.374803 0.183345 0)
(0.352618 0.188001 0)
(0.329761 0.193001 0)
(0.306284 0.197955 0)
(0.282272 0.202586 0)
(0.257714 0.206888 0)
(0.232547 0.211016 0)
(0.20676 0.214998 0)
(0.180415 0.218661 0)
(0.15359 0.221851 0)
(0.126307 0.224534 0)
(0.0987703 0.226702 0)
(0.0705959 0.22878 0)
(0.0429695 0.22885 0)
(0.010118 0.233232 0)
(3 -2.45326e-18 0)
(3 -3.47448e-17 0)
(3 -9.88728e-17 0)
(3 -1.39207e-16 0)
(3 -9.45429e-17 0)
(3 -3.65938e-17 0)
(3 1.13048e-16 0)
(3 1.98857e-16 0)
(3 7.4323e-16 0)
(3 4.91962e-16 0)
(3 -1.53431e-16 0)
(3 1.28615e-18 0)
(3 2.44346e-16 0)
(3 2.40518e-16 0)
(3 2.46786e-16 0)
(3 4.55626e-16 0)
(3 7.4962e-16 0)
(3 6.0309e-16 0)
(3 1.96865e-16 0)
(3 -1.03196e-14 0)
(3 -5.48378e-14 0)
(3 -2.46556e-13 0)
(3 -1.15125e-12 0)
(3 -4.99467e-12 0)
(3 -2.16251e-11 0)
(3 -9.34439e-11 0)
(3 -4.01055e-10 0)
(3 -1.64036e-09 0)
(3 -5.64018e-09 0)
(3 -1.34454e-08 0)
(3 -1.65984e-08 0)
(3 7.86115e-08 0)
(3 5.13004e-07 0)
(3 2.65337e-07 0)
(3 -1.19303e-05 0)
(2.99993 2.92473e-05 0)
(3.00038 -9.46839e-05 0)
(1.27343 0.131677 0)
(0.759893 0.154488 0)
(0.736492 0.156838 0)
(0.717499 0.155458 0)
(0.698902 0.15205 0)
(0.681842 0.150449 0)
(0.664636 0.151376 0)
(0.646096 0.15561 0)
(0.625595 0.162476 0)
(0.603982 0.168097 0)
(0.582555 0.170752 0)
(0.561972 0.171868 0)
(0.542143 0.172802 0)
(0.52285 0.174466 0)
(0.503535 0.177695 0)
(0.483691 0.182381 0)
(0.46319 0.187332 0)
(0.44226 0.191704 0)
(0.42116 0.195631 0)
(0.399931 0.199748 0)
(0.378382 0.204592 0)
(0.356269 0.210176 0)
(0.333483 0.216031 0)
(0.310075 0.221643 0)
(0.286091 0.226864 0)
(0.261484 0.231819 0)
(0.236183 0.236674 0)
(0.210183 0.241377 0)
(0.183555 0.245703 0)
(0.156383 0.249485 0)
(0.128694 0.252677 0)
(0.100698 0.255271 0)
(0.0720195 0.257722 0)
(0.0438668 0.25789 0)
(0.010339 0.262996 0)
(3 -5.22606e-17 0)
(3 -3.55703e-17 0)
(3 -1.10979e-17 0)
(3 -2.23963e-16 0)
(3 -3.39385e-16 0)
(3 -1.25793e-16 0)
(3 -2.24352e-16 0)
(3 1.02636e-16 0)
(3 -8.60744e-18 0)
(3 -1.38151e-16 0)
(3 -5.25979e-17 0)
(3 -1.11285e-16 0)
(3 -1.69246e-16 0)
(3 -4.91789e-16 0)
(3 1.88559e-16 0)
(3 2.22388e-16 0)
(3 8.973e-16 0)
(3 1.29387e-15 0)
(3 -2.94635e-17 0)
(3 -7.69567e-15 0)
(3 -3.28775e-14 0)
(3 -1.37495e-13 0)
(3 -7.22477e-13 0)
(3 -3.36239e-12 0)
(3 -1.49332e-11 0)
(3 -6.56093e-11 0)
(3 -2.77889e-10 0)
(3 -1.10135e-09 0)
(3 -3.58042e-09 0)
(3 -8.75876e-09 0)
(3 -1.07788e-08 0)
(3 5.2241e-08 0)
(3 2.68759e-07 0)
(3 3.03609e-08 0)
(2.99997 -6.09135e-06 0)
(2.99998 5.56176e-05 0)
(3.00035 -0.000179541 0)
(1.40245 0.158839 0)
(0.761679 0.16943 0)
(0.742107 0.172622 0)
(0.723833 0.169893 0)
(0.705177 0.165799 0)
(0.686689 0.165059 0)
(0.667239 0.167294 0)
(0.646373 0.173528 0)
(0.62464 0.181681 0)
(0.603197 0.187284 0)
(0.582819 0.189222 0)
(0.563386 0.189656 0)
(0.544552 0.190176 0)
(0.525914 0.191823 0)
(0.506908 0.195533 0)
(0.487196 0.200941 0)
(0.466836 0.206512 0)
(0.4461 0.211287 0)
(0.425167 0.215586 0)
(0.40404 0.220246 0)
(0.382558 0.225871 0)
(0.360528 0.232362 0)
(0.337861 0.239055 0)
(0.314566 0.245367 0)
(0.290633 0.251267 0)
(0.26597 0.256983 0)
(0.240507 0.26266 0)
(0.214255 0.268166 0)
(0.187296 0.273232 0)
(0.159718 0.277691 0)
(0.131554 0.281474 0)
(0.103016 0.28457 0)
(0.0737374 0.287447 0)
(0.0449508 0.287751 0)
(0.0106065 0.29366 0)
(3 -2.81507e-17 0)
(3 1.19867e-17 0)
(3 6.23616e-17 0)
(3 8.27997e-17 0)
(3 2.08451e-16 0)
(3 3.58298e-17 0)
(3 1.06982e-16 0)
(3 5.05651e-16 0)
(3 3.97811e-16 0)
(3 3.89408e-16 0)
(3 3.16891e-16 0)
(3 5.27655e-17 0)
(3 -1.18119e-16 0)
(3 -3.07534e-16 0)
(3 3.23599e-16 0)
(3 7.47313e-16 0)
(3 4.84258e-16 0)
(3 5.5349e-16 0)
(3 9.59769e-17 0)
(3 3.39515e-16 0)
(3 -1.52212e-15 0)
(3 -2.40431e-14 0)
(3 -1.31355e-13 0)
(3 -6.25778e-13 0)
(3 -2.92468e-12 0)
(3 -1.29846e-11 0)
(3 -5.27616e-11 0)
(3 -1.78351e-10 0)
(3 -5.19571e-10 0)
(3 -1.58988e-09 0)
(3 -5.56774e-09 0)
(3 -1.75738e-08 0)
(3 -2.92975e-08 0)
(3 2.74384e-08 0)
(2.99997 1.48863e-06 0)
(3.0001 1.58875e-05 0)
(3.0003 -0.000176026 0)
(1.53286 0.195254 0)
(0.758301 0.183793 0)
(0.744777 0.18729 0)
(0.723144 0.184377 0)
(0.702599 0.181166 0)
(0.681698 0.181571 0)
(0.66016 0.185144 0)
(0.638481 0.192218 0)
(0.6179 0.199965 0)
(0.599206 0.204443 0)
(0.581902 0.205541 0)
(0.564991 0.20576 0)
(0.547961 0.206432 0)
(0.530252 0.20871 0)
(0.511441 0.21337 0)
(0.491594 0.219638 0)
(0.471137 0.225763 0)
(0.450438 0.230899 0)
(0.429619 0.235587 0)
(0.408607 0.240805 0)
(0.387242 0.247182 0)
(0.365378 0.254526 0)
(0.342924 0.262027 0)
(0.319824 0.269105 0)
(0.295987 0.275807 0)
(0.27128 0.28242 0)
(0.24564 0.289035 0)
(0.219099 0.295441 0)
(0.191757 0.301343 0)
(0.163707 0.306579 0)
(0.134984 0.31105 0)
(0.105799 0.31474 0)
(0.0758049 0.318103 0)
(0.0462533 0.318593 0)
(0.0109279 0.325404 0)
(3 -3.03579e-17 0)
(3 -9.56914e-17 0)
(3 1.83671e-17 0)
(3 -6.18784e-18 0)
(3 -1.78528e-16 0)
(3 -1.40105e-16 0)
(3 1.59849e-16 0)
(3 4.04238e-16 0)
(3 3.2353e-16 0)
(3 2.95791e-16 0)
(3 6.30962e-16 0)
(3 7.43964e-16 0)
(3 4.79236e-16 0)
(3 7.6112e-16 0)
(3 5.13447e-16 0)
(3 5.3296e-16 0)
(3 1.51844e-16 0)
(3 -1.04764e-15 0)
(3 3.32262e-16 0)
(3 7.88747e-15 0)
(3 1.28524e-14 0)
(3 5.81047e-14 0)
(3 3.68002e-13 0)
(3 1.66128e-12 0)
(3 6.9002e-12 0)
(3 2.99855e-11 0)
(3 1.33375e-10 0)
(3 5.53197e-10 0)
(3 1.9271e-09 0)
(3 3.58657e-09 0)
(3 -3.18418e-09 0)
(3 -8.03192e-08 0)
(3 -2.17543e-07 0)
(3 1.4076e-07 0)
(2.99998 6.56735e-06 0)
(3.00006 -1.41967e-05 0)
(2.99989 -6.98613e-05 0)
(1.79465 0.212182 0)
(0.755934 0.20206 0)
(0.760294 0.202284 0)
(0.737823 0.201676 0)
(0.71303 0.200766 0)
(0.687954 0.201767 0)
(0.663419 0.20532 0)
(0.640955 0.210827 0)
(0.621709 0.216299 0)
(0.605061 0.218927 0)
(0.589691 0.219536 0)
(0.574342 0.220171 0)
(0.557867 0.22197 0)
(0.539529 0.225888 0)
(0.51939 0.232041 0)
(0.498178 0.239143 0)
(0.476765 0.245512 0)
(0.45558 0.250746 0)
(0.43461 0.255679 0)
(0.413639 0.261385 0)
(0.392427 0.268455 0)
(0.370798 0.276583 0)
(0.348639 0.28488 0)
(0.325817 0.29281 0)
(0.302147 0.30047 0)
(0.277448 0.308148 0)
(0.251656 0.315847 0)
(0.224821 0.323278 0)
(0.19706 0.330135 0)
(0.16847 0.336274 0)
(0.139096 0.341554 0)
(0.109142 0.345953 0)
(0.0782924 0.34987 0)
(0.0478159 0.350614 0)
(0.011313 0.358445 0)
(3 5.02938e-17 0)
(3 -6.08913e-17 0)
(3 5.14559e-18 0)
(3 -1.20582e-16 0)
(3 -1.17549e-16 0)
(3 3.35092e-16 0)
(3 2.29694e-16 0)
(3 -2.12475e-17 0)
(3 -2.98415e-16 0)
(3 -2.43852e-16 0)
(3 -1.10834e-16 0)
(3 1.88424e-16 0)
(3 9.18425e-16 0)
(3 8.6147e-16 0)
(3 3.05299e-16 0)
(3 -4.95014e-16 0)
(3 1.00723e-16 0)
(3 1.75764e-16 0)
(3 -1.51187e-15 0)
(3 4.6315e-15 0)
(3 2.1449e-14 0)
(3 1.0869e-13 0)
(3 5.38945e-13 0)
(3 2.42284e-12 0)
(3 1.05489e-11 0)
(3 4.51703e-11 0)
(3 1.91814e-10 0)
(3 7.8576e-10 0)
(3 2.63605e-09 0)
(3 6.44927e-09 0)
(3 7.78205e-09 0)
(3 -3.90831e-08 0)
(3 -2.37968e-07 0)
(3 -2.36693e-07 0)
(2.99999 4.09072e-06 0)
(3.00001 -1.20426e-05 0)
(2.99997 1.15475e-05 0)
(1.81501 0.288503 0)
(0.646476 0.231741 0)
(0.66837 0.210184 0)
(0.662116 0.215257 0)
(0.651856 0.217147 0)
(0.641017 0.219337 0)
(0.628749 0.221978 0)
(0.616779 0.2251 0)
(0.606092 0.22846 0)
(0.59615 0.230164 0)
(0.585606 0.231283 0)
(0.573183 0.233392 0)
(0.558416 0.237473 0)
(0.541164 0.243794 0)
(0.521849 0.251585 0)
(0.501528 0.259264 0)
(0.481 0.265574 0)
(0.460582 0.270696 0)
(0.440207 0.275772 0)
(0.419624 0.28194 0)
(0.39864 0.289678 0)
(0.377196 0.298539 0)
(0.355257 0.307627 0)
(0.332664 0.316481 0)
(0.309158 0.325245 0)
(0.284501 0.334165 0)
(0.2586 0.343117 0)
(0.231501 0.351732 0)
(0.203317 0.359706 0)
(0.17414 0.366912 0)
(0.144022 0.373158 0)
(0.11316 0.378417 0)
(0.0812902 0.382969 0)
(0.0496926 0.384071 0)
(0.0117734 0.393054 0)
(3 1.22245e-16 0)
(3 8.21924e-17 0)
(3 -1.47777e-17 0)
(3 5.50571e-17 0)
(3 1.54956e-16 0)
(3 2.17633e-16 0)
(3 1.07993e-16 0)
(3 -2.98563e-16 0)
(3 -4.12219e-16 0)
(3 -4.89548e-16 0)
(3 -2.59991e-16 0)
(3 -1.28921e-16 0)
(3 9.18366e-17 0)
(3 5.16813e-16 0)
(3 3.3965e-16 0)
(3 -2.06546e-16 0)
(3 -3.95681e-16 0)
(3 4.4146e-16 0)
(3 -5.67402e-16 0)
(3 1.03203e-15 0)
(3 1.41195e-14 0)
(3 9.83028e-14 0)
(3 5.00938e-13 0)
(3 2.13803e-12 0)
(3 9.19846e-12 0)
(3 3.9142e-11 0)
(3 1.64084e-10 0)
(3 6.60095e-10 0)
(3 2.26415e-09 0)
(3 6.32e-09 0)
(3 1.23908e-08 0)
(3 -9.03022e-10 0)
(3 -1.44269e-07 0)
(3 -3.10323e-07 0)
(3 1.51543e-06 0)
(2.99999 8.30869e-07 0)
(3.00004 3.28202e-07 0)
(2.64756 0.42899 0)
(0.683008 0.277818 0)
(0.774771 0.231362 0)
(0.747504 0.234223 0)
(0.704533 0.234469 0)
(0.672622 0.235764 0)
(0.646123 0.235716 0)
(0.625246 0.236725 0)
(0.608981 0.237495 0)
(0.595342 0.23908 0)
(0.581764 0.241589 0)
(0.567655 0.245845 0)
(0.552359 0.252318 0)
(0.535614 0.260742 0)
(0.517845 0.269719 0)
(0.499893 0.277688 0)
(0.482174 0.284003 0)
(0.464434 0.289349 0)
(0.446141 0.295027 0)
(0.426907 0.302097 0)
(0.4066 0.310808 0)
(0.385392 0.320536 0)
(0.363493 0.330451 0)
(0.340894 0.340269 0)
(0.317371 0.350224 0)
(0.292666 0.360509 0)
(0.266639 0.370868 0)
(0.239286 0.380844 0)
(0.210681 0.390137 0)
(0.18088 0.398628 0)
(0.149925 0.406054 0)
(0.118 0.412379 0)
(0.0849172 0.417671 0)
(0.0519513 0.419297 0)
(0.0123207 0.42956 0)
(3 2.4578e-17 0)
(3 2.04401e-16 0)
(3 3.45366e-17 0)
(3 1.92844e-16 0)
(3 -6.41668e-17 0)
(3 -1.88219e-16 0)
(3 -1.0744e-16 0)
(3 -3.22977e-16 0)
(3 -4.53547e-16 0)
(3 -4.09914e-16 0)
(3 -5.39128e-17 0)
(3 2.52277e-16 0)
(3 2.00201e-16 0)
(3 4.77963e-16 0)
(3 -3.04929e-16 0)
(3 -6.03792e-16 0)
(3 -8.91832e-16 0)
(3 -9.44584e-16 0)
(3 -4.09696e-16 0)
(3 1.96293e-15 0)
(3 8.94472e-15 0)
(3 5.61194e-14 0)
(3 3.31177e-13 0)
(3 1.47741e-12 0)
(3 6.20062e-12 0)
(3 2.5712e-11 0)
(3 1.04991e-10 0)
(3 4.1617e-10 0)
(3 1.50698e-09 0)
(3 4.3514e-09 0)
(3 9.018e-09 0)
(3 6.89163e-09 0)
(3 -6.50483e-08 0)
(3 -2.22958e-07 0)
(3 -9.31416e-09 0)
(2.99999 1.40624e-06 0)
(3.00002 -1.59056e-05 0)
(2.97381 0.0738521 0)
(0.849414 0.273058 0)
(0.893662 0.27114 0)
(0.878039 0.273774 0)
(0.833542 0.273733 0)
(0.786 0.272342 0)
(0.736581 0.268739 0)
(0.691935 0.263904 0)
(0.6537 0.259576 0)
(0.621974 0.257931 0)
(0.59553 0.258642 0)
(0.572606 0.262258 0)
(0.551495 0.268933 0)
(0.531827 0.277622 0)
(0.513987 0.286244 0)
(0.497944 0.29357 0)
(0.483013 0.299627 0)
(0.468251 0.305459 0)
(0.452685 0.312393 0)
(0.435518 0.321178 0)
(0.416437 0.331579 0)
(0.395713 0.342638 0)
(0.373827 0.353597 0)
(0.351033 0.364456 0)
(0.327271 0.375634 0)
(0.302343 0.387328 0)
(0.276088 0.399191 0)
(0.248441 0.410689 0)
(0.219391 0.421524 0)
(0.18892 0.431571 0)
(0.157032 0.440463 0)
(0.123865 0.448139 0)
(0.0893385 0.454321 0)
(0.054672 0.456755 0)
(0.0129606 0.468356 0)
(3 -4.00615e-17 0)
(3 6.9217e-17 0)
(3 8.71249e-18 0)
(3 1.14267e-16 0)
(3 2.71385e-16 0)
(3 -1.08452e-16 0)
(3 -6.894e-17 0)
(3 3.01455e-16 0)
(3 1.87202e-16 0)
(3 2.24189e-16 0)
(3 2.96283e-16 0)
(3 2.32395e-16 0)
(3 3.29711e-16 0)
(3 2.77111e-16 0)
(3 4.721e-16 0)
(3 -2.64103e-16 0)
(3 -9.71631e-18 0)
(3 -6.57647e-16 0)
(3 1.67947e-16 0)
(3 1.91112e-15 0)
(3 1.63235e-14 0)
(3 5.07953e-14 0)
(3 1.91936e-13 0)
(3 8.59258e-13 0)
(3 3.60084e-12 0)
(3 1.43804e-11 0)
(3 5.66203e-11 0)
(3 2.1984e-10 0)
(3 8.12933e-10 0)
(3 2.48403e-09 0)
(3 6.00903e-09 0)
(3 6.81281e-09 0)
(3 -2.5535e-08 0)
(3 -1.46594e-07 0)
(3 -1.55205e-07 0)
(2.99999 9.93407e-07 0)
(3 -4.23876e-06 0)
(2.9994 0.00188066 0)
(0.827513 0.210538 0)
(0.83925 0.276072 0)
(0.842542 0.290404 0)
(0.831633 0.300843 0)
(0.820534 0.307887 0)
(0.799967 0.307488 0)
(0.767676 0.304499 0)
(0.726148 0.299339 0)
(0.681402 0.293486 0)
(0.638204 0.289563 0)
(0.599558 0.28965 0)
(0.566703 0.292535 0)
(0.539813 0.297781 0)
(0.518105 0.303236 0)
(0.500706 0.308256 0)
(0.486136 0.313284 0)
(0.472798 0.319383 0)
(0.459179 0.32772 0)
(0.444012 0.338721 0)
(0.426599 0.351525 0)
(0.406962 0.364572 0)
(0.385564 0.377025 0)
(0.36283 0.389157 0)
(0.338914 0.401647 0)
(0.313763 0.414788 0)
(0.287259 0.428222 0)
(0.259297 0.441387 0)
(0.229781 0.454004 0)
(0.19859 0.46593 0)
(0.165662 0.476655 0)
(0.131052 0.48608 0)
(0.0947927 0.493398 0)
(0.0579326 0.49714 0)
(0.0136749 0.509881 0)
(3 -2.41181e-17 0)
(3 -1.49141e-16 0)
(3 -2.27482e-16 0)
(3 -1.65366e-16 0)
(3 3.38503e-17 0)
(3 1.61217e-16 0)
(3 -1.59053e-17 0)
(3 1.72014e-16 0)
(3 4.299e-16 0)
(3 3.40724e-16 0)
(3 -1.52086e-16 0)
(3 -3.34922e-16 0)
(3 -1.76735e-16 0)
(3 3.25456e-17 0)
(3 2.94804e-16 0)
(3 1.00048e-15 0)
(3 7.47582e-16 0)
(3 3.74015e-16 0)
(3 -1.82984e-17 0)
(3 2.23671e-16 0)
(3 1.62557e-15 0)
(3 1.96716e-14 0)
(3 8.80003e-14 0)
(3 4.41979e-13 0)
(3 1.90032e-12 0)
(3 7.38139e-12 0)
(3 2.7281e-11 0)
(3 9.98347e-11 0)
(3 3.60778e-10 0)
(3 1.18203e-09 0)
(3 3.29996e-09 0)
(3 6.35685e-09 0)
(3 3.42172e-09 0)
(3 -4.90381e-08 0)
(3 -1.27244e-07 0)
(2.99999 3.45224e-08 0)
(3 9.51245e-07 0)
(3.00001 8.04997e-06 0)
(0.928849 0.205226 0)
(0.788553 0.268682 0)
(0.792176 0.288164 0)
(0.793866 0.302768 0)
(0.792135 0.313477 0)
(0.7861 0.321024 0)
(0.775043 0.327915 0)
(0.757833 0.33205 0)
(0.730401 0.332358 0)
(0.692261 0.330915 0)
(0.649573 0.328801 0)
(0.607362 0.326824 0)
(0.569924 0.325835 0)
(0.539466 0.325266 0)
(0.515713 0.325612 0)
(0.497136 0.327861 0)
(0.481582 0.333178 0)
(0.467122 0.342208 0)
(0.452256 0.355108 0)
(0.435884 0.370405 0)
(0.417507 0.385811 0)
(0.397215 0.400216 0)
(0.375257 0.414001 0)
(0.351791 0.42806 0)
(0.326839 0.442828 0)
(0.300339 0.457988 0)
(0.272197 0.473024 0)
(0.242264 0.48772 0)
(0.210344 0.50191 0)
(0.17631 0.514943 0)
(0.140053 0.526666 0)
(0.101685 0.53559 0)
(0.0618202 0.541531 0)
(0.0144057 0.554528 0)
(3 8.59809e-17 0)
(3 2.5637e-17 0)
(3 1.84977e-16 0)
(3 2.17415e-16 0)
(3 1.633e-16 0)
(3 1.66293e-16 0)
(3 3.08587e-16 0)
(3 3.04345e-16 0)
(3 2.57893e-16 0)
(3 1.47508e-16 0)
(3 -9.87226e-17 0)
(3 1.68557e-16 0)
(3 9.25108e-17 0)
(3 8.90072e-17 0)
(3 2.18962e-16 0)
(3 7.65804e-16 0)
(3 -3.62644e-17 0)
(3 -5.96872e-16 0)
(3 -4.9612e-16 0)
(3 -8.74162e-16 0)
(3 -1.95223e-15 0)
(3 4.24841e-15 0)
(3 3.73441e-14 0)
(3 2.05118e-13 0)
(3 9.63637e-13 0)
(3 3.58711e-12 0)
(3 1.17376e-11 0)
(3 3.6777e-11 0)
(3 1.16233e-10 0)
(3 4.45603e-10 0)
(3 1.34034e-09 0)
(3 4.01485e-09 0)
(3 1.14815e-08 0)
(3 2.00399e-08 0)
(3 -1.86557e-08 0)
(2.99999 -7.66796e-07 0)
(3 -3.59372e-07 0)
(3 4.4229e-06 0)
(1.11702 0.256498 0)
(0.756332 0.272884 0)
(0.746871 0.285031 0)
(0.745661 0.297902 0)
(0.745817 0.310321 0)
(0.74745 0.322359 0)
(0.746924 0.334095 0)
(0.742457 0.344376 0)
(0.732154 0.353858 0)
(0.71648 0.360951 0)
(0.691791 0.3652 0)
(0.658475 0.365063 0)
(0.620935 0.361959 0)
(0.584073 0.356337 0)
(0.550983 0.350652 0)
(0.523316 0.348469 0)
(0.500279 0.351222 0)
(0.480401 0.359059 0)
(0.462495 0.372303 0)
(0.445097 0.389005 0)
(0.42714 0.406255 0)
(0.40805 0.422582 0)
(0.387511 0.438273 0)
(0.365336 0.454259 0)
(0.34135 0.471032 0)
(0.315442 0.488284 0)
(0.287421 0.50557 0)
(0.257317 0.522762 0)
(0.224785 0.539707 0)
(0.18963 0.55568 0)
(0.151508 0.570513 0)
(0.110235 0.58199 0)
(0.066042 0.591632 0)
(0.0148674 0.602614 0)
(3 -6.43897e-17 0)
(3 -3.59884e-17 0)
(3 8.88324e-18 0)
(3 -1.13228e-16 0)
(3 -2.39946e-17 0)
(3 -2.38956e-16 0)
(3 -2.37893e-16 0)
(3 -4.17063e-16 0)
(3 -8.07676e-16 0)
(3 -5.50367e-16 0)
(3 1.82642e-16 0)
(3 7.4177e-16 0)
(3 2.1175e-16 0)
(3 -3.63531e-16 0)
(3 -5.77429e-16 0)
(3 -6.35015e-16 0)
(3 -8.08733e-16 0)
(3 -5.42515e-16 0)
(3 -2.99132e-16 0)
(3 -9.65989e-16 0)
(3 -4.35407e-15 0)
(3 1.74351e-16 0)
(3 2.41501e-14 0)
(3 1.55846e-13 0)
(3 6.83314e-13 0)
(3 2.49058e-12 0)
(3 7.81228e-12 0)
(3 2.31064e-11 0)
(3 7.82075e-11 0)
(3 3.6536e-10 0)
(3 1.49221e-09 0)
(3 6.19144e-09 0)
(3 2.45552e-08 0)
(3 3.80556e-08 0)
(3 -9.4754e-08 0)
(2.99999 -1.07968e-06 0)
(2.99999 8.03269e-07 0)
(3.00005 1.54709e-05 0)
(1.39332 0.313619 0)
(0.77228 0.300916 0)
(0.734073 0.294587 0)
(0.719782 0.29898 0)
(0.714047 0.307845 0)
(0.712608 0.319175 0)
(0.714084 0.331905 0)
(0.715169 0.346604 0)
(0.713724 0.360943 0)
(0.709151 0.372682 0)
(0.701401 0.384087 0)
(0.68824 0.391811 0)
(0.666229 0.394191 0)
(0.635553 0.391357 0)
(0.600053 0.384586 0)
(0.564188 0.378702 0)
(0.531104 0.378141 0)
(0.502097 0.382482 0)
(0.477501 0.393369 0)
(0.456432 0.409153 0)
(0.437282 0.426652 0)
(0.41872 0.444064 0)
(0.399697 0.461427 0)
(0.379299 0.479521 0)
(0.357096 0.498722 0)
(0.332543 0.518645 0)
(0.305444 0.538791 0)
(0.275613 0.559078 0)
(0.242825 0.579437 0)
(0.206705 0.599295 0)
(0.166549 0.618378 0)
(0.121315 0.634212 0)
(0.07157 0.649628 0)
(0.0151881 0.653204 0)
(3 -4.81008e-17 0)