/*--------------------------------*- C++ -*----------------------------------*\
  =========                 |
  \\      /  F ield         | OpenFOAM: The Open Source CFD Toolbox
   \\    /   O peration     | Website:  https://openfoam.org
    \\  /    A nd           | Version:  13
     \\/     M anipulation  |
\*---------------------------------------------------------------------------*/
FoamFile
{
    format      ascii;
    class       volScalarField;
    location    "0.007";
    object      CrankNicolson:ddt0(rho);
}
// * * * * * * * * * * * * * * * * * * * * * * * * * * * * * * * * * * * * * //

dimensions      [1 -3 -1 0 0 0 0];

internalField   nonuniform List<scalar> 
200
(
2.19263e-11
7.1862e-11
1.58796e-10
2.46335e-10
-3.01719e-10
-3.77276e-09
-1.20218e-08
-2.71981e-08
-6.72125e-09
1.29619e-07
5.72499e-07
5.90926e-07
-6.96764e-06
-9.02626e-05
-0.000383788
-0.000845226
-0.00175739
0.00224668
0.0578377
0.338147
13.4878
167.628
591.442
594.208
173.618
15.5235
1.21788
0.154126
-0.333682
-0.112462
0.119951
0.096615
-0.0166401
-0.0228552
-0.00529721
0.00572136
0.0164005
-0.0350369
-0.0561072
0.00301369
-0.0349382
-0.0920147
-0.121936
-0.135127
-0.21877
-0.261133
-0.372741
-0.593655
-0.852741
-0.871575
-0.632913
-0.272281
-0.115038
1.0931
4.91864
30.1982
73.7769
119.404
152.409
159.054
142.761
109.511
73.0988
42.5105
22.0971
10.1436
4.22275
1.58381
0.5243
0.145622
0.00291211
-0.0191719
0.0105633
0.073131
0.0408587
0.0761288
0.108103
0.0428572
-0.0135565
-0.0740847
-0.162443
-0.102593
-0.165831
-0.106736
-0.0263272
0.152184
0.240023
0.159491
0.101635
-0.0858388
-0.168632
0.0148633
0.320566
0.139726
-0.269901
-0.485405
0.620271
1.33909
0.481881
-0.512753
-1.1471
-2.64881
-3.82891
-5.05214
-6.2482
-7.46811
-8.71949
-10.0088
-11.34
-12.716
-14.1391
-15.6103
-17.1302
-18.6988
-20.3162
-21.9822
-23.6965
-25.459
-27.2694
-29.1273
-31.0327
-32.9852
-34.9847
-37.0308
-39.1235
-41.2625
-43.4475
-45.6781
-47.9539
-50.2743
-52.6384
-55.045
-57.4925
-59.9789
-62.5013
-65.0559
-67.6376
-70.2396
-72.8527
-75.4644
-78.0574
-80.608
-83.0826
-85.4331
-87.5893
-89.4464
-90.8442
-91.5341
-91.1266
-89.0186
-84.3263
-75.9246
-62.8512
-45.3948
-26.4959
-11.2904
-3.11557
-0.491053
-0.0391423
-0.00178756
3.18398e-05
9.39319e-05
0.000206635
0.000233481
0.000155317
5.98662e-05
1.20331e-05
1.09943e-06
5.19939e-08
3.19721e-09
-1.29988e-08
-3.15993e-08
-2.06334e-08
-5.96257e-09
-6.81073e-10
-2.18383e-11
1.11117e-10
1.77258e-10
9.50722e-11
1.39e-11
-3.70427e-12
-2.55616e-12
-1.01583e-11
-9.1856e-12
6.5408e-13
-3.20124e-12
-6.73844e-12
2.55392e-12
2.63926e-12
2.93836e-13
-3.85404e-12
7.47128e-13
-2.98127e-12
1.08542e-12
-3.57511e-12
-3.70643e-12
-2.99864e-12
-9.26405e-13
5.38828e-13
-2.90398e-12
)
;

boundaryField
{
    side1
    {
        type            calculated;
        value           uniform -1.40706e-12;
    }
    side2
    {
        type            calculated;
        value           uniform 2.16401e-11;
    }
    empty
    {
        type            empty;
    }
}


// ************************************************************************* //
