/*--------------------------------*- C++ -*----------------------------------*\
  =========                 |
  \\      /  F ield         | OpenFOAM: The Open Source CFD Toolbox
   \\    /   O peration     | Website:  https://openfoam.org
    \\  /    A nd           | Version:  13
     \\/     M anipulation  |
\*---------------------------------------------------------------------------*/
FoamFile
{
    format      ascii;
    class       volScalarField;
    location    "0.007";
    object      CrankNicolson:ddt0(rhoE);
}
// * * * * * * * * * * * * * * * * * * * * * * * * * * * * * * * * * * * * * //

dimensions      [1 -1 -3 0 0 0 0];

internalField   nonuniform List<scalar> 
200
(
6.03465e-06
2.02151e-05
4.43818e-05
6.87618e-05
-8.45492e-05
-0.00105573
-0.00336408
-0.00760671
-0.00185058
0.0363413
0.15982
0.159685
-1.9864
-25.3866
-107.206
-231.096
-464.203
604.703
15336.5
94198.1
3.82028e+06
5.16588e+07
2.35472e+08
2.94639e+08
9.39766e+07
9.09201e+06
617791
21425.2
-137253
-46471.8
32706
37072.7
5944.29
11752.5
17097.5
16015.6
21821.9
11776.7
1279.3
21982.7
17173.4
-1939.68
-18941.6
-27453.4
-48524.9
-42206.2
-42717.4
-46884.8
-62498.6
-59123.8
-45816.5
-14689.3
-25063.7
314941
-193442
1.36088e+06
3.42537e+06
5.08664e+06
6.91266e+06
6.78866e+06
6.09267e+06
4.57905e+06
3.0688e+06
1.767e+06
930460
404914
152410
42464.2
-1215.79
-9705.67
-9955.75
-5038.28
12753.3
39092.1
43967.9
47035.9
36115.4
10723.1
-22049.2
-43912.1
-57254.5
-29935.5
-37431.2
-23630.8
-7813.08
29115.3
52958.7
47378
53847
23067
-24429
-6542.39
9798.65
-7411.86
-75952.3
-89089.4
179109
244779
98406.7
-115221
-220761
-533129
-769420
-1.02373e+06
-1.27534e+06
-1.53673e+06
-1.80926e+06
-2.09482e+06
-2.39459e+06
-2.70973e+06
-3.04119e+06
-3.38976e+06
-3.75612e+06
-4.14087e+06
-4.54462e+06
-4.96794e+06
-5.41144e+06
-5.8757e+06
-6.36133e+06
-6.86894e+06
-7.39917e+06
-7.95266e+06
-8.53007e+06
-9.13208e+06
-9.75936e+06
-1.04126e+07
-1.10925e+07
-1.17997e+07
-1.2535e+07
-1.32988e+07
-1.40917e+07
-1.49143e+07
-1.57668e+07
-1.66495e+07
-1.75622e+07
-1.85046e+07
-1.9476e+07
-2.04748e+07
-2.14988e+07
-2.25447e+07
-2.36074e+07
-2.46795e+07
-2.57499e+07
-2.68026e+07
-2.78133e+07
-2.87451e+07
-2.95413e+07
-3.01126e+07
-3.03182e+07
-2.99386e+07
-2.86493e+07
-2.60324e+07
-2.17186e+07
-1.57807e+07
-9.2468e+06
-3.94806e+06
-1.09024e+06
-171864
-13699.8
-625.648
11.1483
32.8768
72.3221
81.7182
54.361
20.9532
4.21157
0.3848
0.0181958
0.00111826
-0.00455011
-0.0110601
-0.00722255
-0.00208581
-0.000238975
-6.60218e-06
3.86001e-05
6.17204e-05
3.23707e-05
6.35212e-06
1.21481e-06
-1.0839e-06
-7.6151e-07
-2.48221e-06
1.66101e-07
1.0128e-06
-1.19007e-06
-1.13863e-07
1.42701e-07
-7.74199e-07
2.63518e-07
8.10246e-07
7.11492e-07
-2.13396e-06
-2.44369e-07
4.8477e-07
3.31251e-07
-3.15807e-07
-2.75542e-06
-8.53892e-07
)
;

boundaryField
{
    side1
    {
        type            calculated;
        value           uniform 2.1359e-06;
    }
    side2
    {
        type            calculated;
        value           uniform 5.51295e-06;
    }
    empty
    {
        type            empty;
    }
}


// ************************************************************************* //
