/*--------------------------------*- C++ -*----------------------------------*\
  =========                 |
  \\      /  F ield         | OpenFOAM: The Open Source CFD Toolbox
   \\    /   O peration     | Website:  https://openfoam.org
    \\  /    A nd           | Version:  13
     \\/     M anipulation  |
\*---------------------------------------------------------------------------*/
FoamFile
{
    format      ascii;
    class       volVectorField;
    location    "0.007";
    object      CrankNicolson:ddt0(rhoU);
}
// * * * * * * * * * * * * * * * * * * * * * * * * * * * * * * * * * * * * * //

dimensions      [1 -2 -2 0 0 0 0];

internalField   nonuniform List<vector> 
200
(
(8.04882e-09 0 0)
(2.67657e-08 0 0)
(5.27664e-08 0 0)
(7.75078e-08 0 0)
(-1.1369e-07 0 0)
(-1.42467e-06 0 0)
(-3.99765e-06 0 0)
(-8.18682e-06 0 0)
(-4.41271e-06 0 0)
(7.44128e-05 0 0)
(0.000158001 0 0)
(0.000178792 0 0)
(-0.00267218 0 0)
(-0.0316621 0 0)
(-0.147287 0 0)
(-0.243134 0 0)
(-0.513675 0 0)
(0.768757 0 0)
(16.4476 0 0)
(136.75 0 0)
(5505.24 0 0)
(72491.7 0 0)
(297759 0 0)
(362717 0 0)
(112444 0 0)
(11340.8 0 0)
(932.261 0 0)
(-114.852 0 0)
(-79.0219 0 0)
(-22.4174 0 0)
(-6.47029 0 0)
(20.3429 0 0)
(35.7593 0 0)
(17.8649 0 0)
(8.20485 0 0)
(3.68053 0 0)
(4.16319 0 0)
(19.1319 0 0)
(9.91627 0 0)
(1.46161 0 0)
(-8.38798 0 0)
(-18.0065 0 0)
(-53.5276 0 0)
(-64.8629 0 0)
(-79.839 0 0)
(-96.6273 0 0)
(-146.411 0 0)
(-194.174 0 0)
(-250.767 0 0)
(-265.393 0 0)
(-206.592 0 0)
(-84.6598 0 0)
(19.4591 0 0)
(69.7203 0 0)
(1792.81 0 0)
(8771.23 0 0)
(21990.7 0 0)
(35631.4 0 0)
(44539.9 0 0)
(46643.3 0 0)
(41489.8 0 0)
(31948.6 0 0)
(21275.7 0 0)
(12456.5 0 0)
(6421.3 0 0)
(2961.43 0 0)
(1204.25 0 0)
(446.018 0 0)
(133.033 0 0)
(28.4356 0 0)
(-4.73403 0 0)
(-10.6372 0 0)
(18.1398 0 0)
(40.5627 0 0)
(40.2755 0 0)
(55.5973 0 0)
(64.6935 0 0)
(29.9113 0 0)
(0.911099 0 0)
(-67.3095 0 0)
(-112.265 0 0)
(-80.381 0 0)
(-62.7619 0 0)
(-46.0529 0 0)
(-8.00781 0 0)
(68.0655 0 0)
(77.9619 0 0)
(71.7854 0 0)
(65.3096 0 0)
(37.6753 0 0)
(17.4117 0 0)
(26.2063 0 0)
(17.4952 0 0)
(-49.46 0 0)
(-148.207 0 0)
(-242.874 0 0)
(288.173 0 0)
(-32.736 0 0)
(33.3068 0 0)
(-139.516 0 0)
(96.2777 0 0)
(37.8259 0 0)
(115.001 0 0)
(173.819 0 0)
(256.716 0 0)
(355.554 0 0)
(473.145 0 0)
(610.227 0 0)
(767.953 0 0)
(947.466 0 0)
(1149.94 0 0)
(1376.52 0 0)
(1628.34 0 0)
(1906.5 0 0)
(2212.09 0 0)
(2546.18 0 0)
(2909.81 0 0)
(3304.02 0 0)
(3729.84 0 0)
(4188.27 0 0)
(4680.3 0 0)
(5206.93 0 0)
(5769.12 0 0)
(6367.84 0 0)
(7004.04 0 0)
(7678.64 0 0)
(8392.57 0 0)
(9146.71 0 0)
(9941.88 0 0)
(10778.9 0 0)
(11658.4 0 0)
(12581 0 0)
(13547.3 0 0)
(14557.3 0 0)
(15611.2 0 0)
(16708.5 0 0)
(17848.4 0 0)
(19029.5 0 0)
(20249.2 0 0)
(21503.9 0 0)
(22788.1 0 0)
(24093.7 0 0)
(25408.6 0 0)
(26715.1 0 0)
(27986.7 0 0)
(29182.9 0 0)
(30241.4 0 0)
(31064.1 0 0)
(31496.3 0 0)
(31297.5 0 0)
(30113.8 0 0)
(27492.6 0 0)
(23037.9 0 0)
(16827 0 0)
(9940.61 0 0)
(4302.29 0 0)
(1212.27 0 0)
(196.046 0 0)
(16.0555 0 0)
(0.716993 0 0)
(-0.00606172 0 0)
(-0.0340278 0 0)
(-0.0768114 0 0)
(-0.0875844 0 0)
(-0.0595315 0 0)
(-0.0232725 0 0)
(-0.00482029 0 0)
(-0.000461809 0 0)
(-2.04353e-05 0 0)
(-1.99654e-06 0 0)
(4.21756e-06 0 0)
(1.24958e-05 0 0)
(7.95906e-06 0 0)
(2.38958e-06 0 0)
(2.82737e-07 0 0)
(7.78233e-09 0 0)
(-5.08613e-08 0 0)
(-3.77432e-08 0 0)
(-4.5643e-08 0 0)
(-1.51138e-08 0 0)
(-2.18564e-09 0 0)
(4.89785e-11 0 0)
(1.30938e-09 0 0)
(8.63839e-11 0 0)
(-2.37842e-11 0 0)
(2.76951e-10 0 0)
(-7.67201e-10 0 0)
(4.15124e-10 0 0)
(-2.3492e-10 0 0)
(-1.98979e-09 0 0)
(2.75906e-10 0 0)
(-1.41412e-10 0 0)
(-1.02214e-10 0 0)
(-7.60903e-10 0 0)
(-3.2859e-10 0 0)
(3.29069e-10 0 0)
(5.17499e-11 0 0)
(-5.15303e-10 0 0)
(5.39457e-10 0 0)
(7.55876e-10 0 0)
)
;

boundaryField
{
    side1
    {
        type            calculated;
        value           uniform (7.55876e-10 0 0);
    }
    side2
    {
        type            calculated;
        value           uniform (8.04882e-09 0 0);
    }
    empty
    {
        type            empty;
    }
}


// ************************************************************************* //
