/*--------------------------------*- C++ -*----------------------------------*\
  =========                 |
  \\      /  F ield         | OpenFOAM: The Open Source CFD Toolbox
   \\    /   O peration     | Website:  https://openfoam.org
    \\  /    A nd           | Version:  13
     \\/     M anipulation  |
\*---------------------------------------------------------------------------*/
FoamFile
{
    format      ascii;
    class       volScalarField;
    location    "0.007";
    object      p;
}
// * * * * * * * * * * * * * * * * * * * * * * * * * * * * * * * * * * * * * //

dimensions      [1 -1 -2 0 0 0 0];

internalField   nonuniform List<scalar> 
200
(
10000
10000
10000
10000
10000
10000
10000
10000
10000
10000
10000
10000
10000
10000
9999.99
9999.98
9999.97
10000.1
10001.1
10025.4
10512.8
13871.3
21755.6
28201.3
30091
30305.6
30327.5
30307.9
30308.7
30318.9
30316.6
30311.2
30312.7
30314.6
30316
30315.5
30313.9
30314.4
30318.4
30317.9
30315.3
30317.5
30317
30314.9
30315.2
30315.4
30314
30312.1
30312.6
30314
30313.1
30311.4
30309.1
30331.7
30264.2
30367.9
30242.6
30346.1
30290.3
30333.8
30314.2
30324.5
30313.3
30313
30307.3
30311.6
30310.4
30307.6
30302.8
30304.5
30307.5
30307.9
30307.6
30308.7
30298.6
30298.7
30300
30302.5
30311.9
30310.7
30303.6
30293.6
30291.1
30291.7
30296.4
30296.3
30290.5
30279.6
30275.5
30287
30316.2
30346.5
30330.5
30271.3
30265.3
30261.2
30243
30059.9
29802.9
29814.2
30037.5
30462.5
31057.2
31739.9
32477.1
33250.4
34052.3
34879.6
35730.5
36604.6
37501.6
38421.7
39365.2
40332.1
41322.9
42337.7
43376.9
44440.8
45529.6
46643.5
47783
48948.2
50139.5
51357
52601.2
53872.2
55170.4
56496
57849.3
59230.6
60640.2
62078.3
63545
65040.7
66565.5
68119.4
69702.5
71314.7
72955.8
74625.5
76323.1
78047.8
79798.1
81572.1
83366.9
85178.5
87000.7
88824.8
90637.2
92417.7
94135.1
95743
97175.7
98352.4
99200.6
99700.7
99921.3
99987
99998.8
100000
100000
100000
100000
100000
100000
100000
100000
100000
100000
100000
100000
100000
100000
100000
100000
100000
100000
100000
100000
100000
100000
100000
100000
100000
100000
100000
100000
100000
100000
100000
100000
100000
100000
100000
100000
100000
100000
100000
100000
100000
)
;

boundaryField
{
    side1
    {
        type            zeroGradient;
    }
    side2
    {
        type            zeroGradient;
    }
    empty
    {
        type            empty;
    }
}


// ************************************************************************* //
