/*--------------------------------*- C++ -*----------------------------------*\
  =========                 |
  \\      /  F ield         | OpenFOAM: The Open Source CFD Toolbox
   \\    /   O peration     | Website:  https://openfoam.org
    \\  /    A nd           | Version:  13
     \\/     M anipulation  |
\*---------------------------------------------------------------------------*/
FoamFile
{
    format      ascii;
    class       volScalarField;
    location    "0.007";
    object      rho;
}
// * * * * * * * * * * * * * * * * * * * * * * * * * * * * * * * * * * * * * //

dimensions      [1 -3 0 0 0 0 0];

internalField   nonuniform List<scalar> 
200
(
0.124956
0.124956
0.124956
0.124956
0.124956
0.124956
0.124956
0.124956
0.124956
0.124956
0.124956
0.124956
0.124956
0.124956
0.124955
0.124955
0.124955
0.124956
0.124965
0.125182
0.129369
0.155124
0.209806
0.252157
0.264066
0.265388
0.265534
0.265407
0.265412
0.265475
0.265459
0.26543
0.265443
0.265446
0.265448
0.265438
0.265422
0.265419
0.265435
0.265423
0.265394
0.265393
0.265373
0.265343
0.265322
0.26529
0.265225
0.265127
0.265003
0.264876
0.264763
0.264698
0.26467
0.264862
0.265466
0.270698
0.281485
0.301376
0.32585
0.35294
0.377368
0.396948
0.410254
0.41834
0.422619
0.424741
0.425631
0.425964
0.426052
0.426111
0.426154
0.426159
0.426151
0.426153
0.426041
0.42603
0.426044
0.426076
0.426177
0.426176
0.426096
0.425989
0.425958
0.425949
0.425997
0.426002
0.425965
0.425859
0.425811
0.425916
0.426197
0.426506
0.426384
0.425801
0.425735
0.425651
0.425451
0.423646
0.421074
0.421112
0.423445
0.427688
0.433639
0.440426
0.447707
0.455295
0.463111
0.471118
0.479299
0.487644
0.496149
0.504813
0.513635
0.522615
0.531753
0.541047
0.550499
0.560109
0.569876
0.5798
0.589881
0.60012
0.610515
0.621068
0.631777
0.642643
0.653666
0.664845
0.676182
0.687675
0.699324
0.711129
0.72309
0.735206
0.747475
0.759897
0.772469
0.785189
0.798053
0.811056
0.824192
0.837452
0.850824
0.864291
0.877832
0.891415
0.904996
0.918508
0.931857
0.944896
0.957406
0.96906
0.979396
0.987854
0.993931
0.997508
0.999084
0.999553
0.999637
0.999645
0.999646
0.999646
0.999646
0.999646
0.999646
0.999646
0.999646
0.999646
0.999646
0.999646
0.999646
0.999646
0.999646
0.999646
0.999646
0.999646
0.999646
0.999646
0.999646
0.999646
0.999646
0.999646
0.999646
0.999646
0.999646
0.999646
0.999646
0.999646
0.999646
0.999646
0.999646
0.999646
0.999646
0.999646
0.999646
0.999646
0.999646
0.999646
0.999646
0.999646
)
;

boundaryField
{
    side1
    {
        type            calculated;
        value           uniform 0.999646;
    }
    side2
    {
        type            calculated;
        value           uniform 0.124956;
    }
    empty
    {
        type            empty;
    }
}


// ************************************************************************* //
