/*--------------------------------*- C++ -*----------------------------------*\
  =========                 |
  \\      /  F ield         | OpenFOAM: The Open Source CFD Toolbox
   \\    /   O peration     | Website:  https://openfoam.org
    \\  /    A nd           | Version:  13
     \\/     M anipulation  |
\*---------------------------------------------------------------------------*/
FoamFile
{
    format      ascii;
    class       volScalarField;
    location    "0.007";
    object      rho_0;
}
// * * * * * * * * * * * * * * * * * * * * * * * * * * * * * * * * * * * * * //

dimensions      [1 -3 0 0 0 0 0];

internalField   nonuniform List<scalar> 
200
(
0.124956
0.124956
0.124956
0.124956
0.124956
0.124956
0.124956
0.124956
0.124956
0.124956
0.124956
0.124956
0.124956
0.124956
0.124956
0.124955
0.124955
0.124955
0.124958
0.124975
0.125498
0.132987
0.167624
0.223961
0.257427
0.264846
0.265494
0.265393
0.26543
0.265482
0.265452
0.265423
0.265444
0.265448
0.265448
0.265438
0.265421
0.265421
0.265439
0.265423
0.265397
0.2654
0.265382
0.265352
0.265338
0.26531
0.265253
0.265169
0.265061
0.264932
0.264799
0.264711
0.264682
0.264746
0.264898
0.268144
0.275884
0.292899
0.315496
0.342492
0.368272
0.39016
0.405833
0.415823
0.421334
0.424162
0.425393
0.425876
0.426023
0.426103
0.426154
0.426159
0.42615
0.426148
0.426037
0.426025
0.426038
0.426075
0.42618
0.426184
0.426106
0.425995
0.425968
0.425955
0.425996
0.42599
0.425949
0.425849
0.425805
0.425922
0.426208
0.426506
0.426364
0.425796
0.425757
0.425678
0.425401
0.423561
0.42104
0.421149
0.423519
0.427864
0.433891
0.44076
0.44812
0.455788
0.463686
0.471779
0.480047
0.488483
0.497082
0.505843
0.514765
0.523848
0.533092
0.542497
0.552062
0.561787
0.571674
0.58172
0.591927
0.602294
0.612821
0.623508
0.634355
0.645362
0.656529
0.667855
0.679341
0.690987
0.702792
0.714756
0.726878
0.739157
0.751593
0.764183
0.776925
0.789816
0.802853
0.816029
0.829336
0.842765
0.856302
0.869927
0.883613
0.897324
0.911005
0.924576
0.937917
0.950849
0.963096
0.974262
0.983816
0.991187
0.996018
0.998499
0.999405
0.999616
0.999644
0.999646
0.999646
0.999646
0.999646
0.999646
0.999646
0.999646
0.999646
0.999646
0.999646
0.999646
0.999646
0.999646
0.999646
0.999646
0.999646
0.999646
0.999646
0.999646
0.999646
0.999646
0.999646
0.999646
0.999646
0.999646
0.999646
0.999646
0.999646
0.999646
0.999646
0.999646
0.999646
0.999646
0.999646
0.999646
0.999646
0.999646
0.999646
0.999646
0.999646
0.999646
)
;

boundaryField
{
    side1
    {
        type            calculated;
        value           uniform 0.999646;
    }
    side2
    {
        type            calculated;
        value           uniform 0.124956;
    }
    empty
    {
        type            empty;
    }
}


// ************************************************************************* //
