/*--------------------------------*- C++ -*----------------------------------*\
  =========                 |
  \\      /  F ield         | OpenFOAM: The Open Source CFD Toolbox
   \\    /   O peration     | Website:  https://openfoam.org
    \\  /    A nd           | Version:  13
     \\/     M anipulation  |
\*---------------------------------------------------------------------------*/
FoamFile
{
    format      ascii;
    class       volScalarField;
    location    "0.007";
    object      T;
}
// * * * * * * * * * * * * * * * * * * * * * * * * * * * * * * * * * * * * * //

dimensions      [0 0 0 1 0 0 0];

internalField   nonuniform List<scalar> 
200
(
278.746
278.746
278.746
278.746
278.746
278.746
278.746
278.746
278.746
278.746
278.746
278.746
278.746
278.746
278.746
278.746
278.746
278.747
278.754
278.95
283.042
311.46
361.175
389.55
396.907
397.746
397.814
397.748
397.751
397.79
397.784
397.756
397.758
397.778
397.793
397.8
397.803
397.816
397.844
397.855
397.864
397.894
397.918
397.936
397.97
398.022
398.099
398.224
398.416
398.625
398.783
398.859
398.871
398.879
397.086
390.745
374.221
350.718
323.781
299.357
279.798
266.087
257.362
252.385
249.783
248.57
248.04
247.823
247.733
247.713
247.713
247.713
247.714
247.723
247.705
247.713
247.715
247.717
247.735
247.726
247.715
247.695
247.693
247.702
247.713
247.709
247.684
247.655
247.65
247.683
247.759
247.826
247.767
247.622
247.611
247.626
247.594
247.143
246.527
246.598
247.076
248.086
249.458
251.013
252.666
254.371
256.11
257.873
259.655
261.455
263.27
265.1
266.945
268.802
270.673
272.556
274.452
276.359
278.277
280.206
282.145
284.095
286.054
288.022
289.999
291.984
293.978
295.979
297.988
300.004
302.027
304.057
306.093
308.135
310.182
312.234
314.29
316.351
318.414
320.48
322.546
324.612
326.676
328.735
330.785
332.823
334.842
336.833
338.783
340.671
342.467
344.128
345.592
346.782
347.634
348.134
348.354
348.419
348.431
348.432
348.432
348.432
348.432
348.432
348.432
348.432
348.432
348.432
348.432
348.432
348.432
348.432
348.432
348.432
348.432
348.432
348.432
348.432
348.432
348.432
348.432
348.432
348.432
348.432
348.432
348.432
348.432
348.432
348.432
348.432
348.432
348.432
348.432
348.432
348.432
348.432
348.432
348.432
348.432
348.432
)
;

boundaryField
{
    side1
    {
        type            zeroGradient;
    }
    side2
    {
        type            zeroGradient;
    }
    empty
    {
        type            empty;
    }
}


// ************************************************************************* //
