/*--------------------------------*- C++ -*----------------------------------*\
  =========                 |
  \\      /  F ield         | OpenFOAM: The Open Source CFD Toolbox
   \\    /   O peration     | Website:  https://openfoam.org
    \\  /    A nd           | Version:  13
     \\/     M anipulation  |
\*---------------------------------------------------------------------------*/
FoamFile
{
    format      ascii;
    class       volVectorField;
    location    "0.007";
    object      U;
}
// * * * * * * * * * * * * * * * * * * * * * * * * * * * * * * * * * * * * * //

dimensions      [0 1 -1 0 0 0 0];

internalField   nonuniform List<vector> 
200
(
(1.62693e-11 0 0)
(3.94777e-11 0 0)
(8.30461e-11 0 0)
(1.15285e-10 0 0)
(-1.68531e-10 0 0)
(-1.75905e-09 0 0)
(-4.84723e-09 0 0)
(-9.71782e-09 0 0)
(1.61103e-09 0 0)
(8.83106e-08 0 0)
(2.40328e-07 0 0)
(9.15447e-08 0 0)
(-6.27897e-06 0 0)
(-4.70632e-05 0 0)
(-0.000169499 0 0)
(-0.000389331 0 0)
(-0.000523951 0 0)
(0.00200356 0 0)
(0.026202 0 0)
(0.732576 0 0)
(14.2793 0 0)
(88.8917 0 0)
(206.094 0 0)
(274.126 0 0)
(291.415 0 0)
(293.239 0 0)
(293.28 0 0)
(293.462 0 0)
(293.385 0 0)
(293.295 0 0)
(293.327 0 0)
(293.382 0 0)
(293.373 0 0)
(293.366 0 0)
(293.357 0 0)
(293.371 0 0)
(293.391 0 0)
(293.394 0 0)
(293.357 0 0)
(293.378 0 0)
(293.406 0 0)
(293.38 0 0)
(293.378 0 0)
(293.389 0 0)
(293.366 0 0)
(293.356 0 0)
(293.352 0 0)
(293.365 0 0)
(293.348 0 0)
(293.331 0 0)
(293.329 0 0)
(293.348 0 0)
(293.371 0 0)
(293.197 0 0)
(293.688 0 0)
(292.879 0 0)
(294.166 0 0)
(293.378 0 0)
(294.093 0 0)
(293.567 0 0)
(293.65 0 0)
(293.393 0 0)
(293.416 0 0)
(293.365 0 0)
(293.407 0 0)
(293.349 0 0)
(293.346 0 0)
(293.358 0 0)
(293.395 0 0)
(293.371 0 0)
(293.347 0 0)
(293.345 0 0)
(293.353 0 0)
(293.355 0 0)
(293.449 0 0)
(293.457 0 0)
(293.46 0 0)
(293.448 0 0)
(293.363 0 0)
(293.364 0 0)
(293.388 0 0)
(293.455 0 0)
(293.466 0 0)
(293.45 0 0)
(293.42 0 0)
(293.427 0 0)
(293.492 0 0)
(293.58 0 0)
(293.622 0 0)
(293.558 0 0)
(293.331 0 0)
(293.106 0 0)
(293.235 0 0)
(293.644 0 0)
(293.657 0 0)
(293.654 0 0)
(293.823 0 0)
(295.293 0 0)
(297.199 0 0)
(296.924 0 0)
(295.428 0 0)
(292.183 0 0)
(287.851 0 0)
(282.924 0 0)
(277.711 0 0)
(272.347 0 0)
(266.895 0 0)
(261.385 0 0)
(255.833 0 0)
(250.246 0 0)
(244.63 0 0)
(238.989 0 0)
(233.323 0 0)
(227.635 0 0)
(221.928 0 0)
(216.202 0 0)
(210.459 0 0)
(204.701 0 0)
(198.929 0 0)
(193.144 0 0)
(187.349 0 0)
(181.544 0 0)
(175.73 0 0)
(169.909 0 0)
(164.082 0 0)
(158.249 0 0)
(152.413 0 0)
(146.573 0 0)
(140.732 0 0)
(134.889 0 0)
(129.045 0 0)
(123.203 0 0)
(117.362 0 0)
(111.524 0 0)
(105.689 0 0)
(99.8601 0 0)
(94.0374 0 0)
(88.223 0 0)
(82.4189 0 0)
(76.6275 0 0)
(70.852 0 0)
(65.0962 0 0)
(59.3653 0 0)
(53.6657 0 0)
(48.0063 0 0)
(42.3993 0 0)
(36.8615 0 0)
(31.4173 0 0)
(26.1025 0 0)
(20.9702 0 0)
(16.1008 0 0)
(11.6123 0 0)
(7.66816 0 0)
(4.46484 0 0)
(2.1718 0 0)
(0.81993 0 0)
(0.218841 0 0)
(0.0370376 0 0)
(0.00352159 0 0)
(0.00014508 0 0)
(-3.34352e-05 0 0)
(-3.72998e-05 0 0)
(-3.25455e-05 0 0)
(-2.27034e-05 0 0)
(-1.1747e-05 0 0)
(-4.12524e-06 0 0)
(-8.73455e-07 0 0)
(-9.64667e-08 0 0)
(-1.92621e-09 0 0)
(3.36524e-09 0 0)
(3.40917e-09 0 0)
(2.75182e-09 0 0)
(1.37058e-09 0 0)
(3.81503e-10 0 0)
(3.54331e-11 0 0)
(-1.76186e-11 0 0)
(-1.95809e-11 0 0)
(-1.2319e-11 0 0)
(-7.31074e-12 0 0)
(-3.00907e-12 0 0)
(-9.46313e-13 0 0)
(-7.29329e-13 0 0)
(-8.14575e-13 0 0)
(-1.00918e-12 0 0)
(-1.16433e-12 0 0)
(-1.22045e-12 0 0)
(-1.32378e-12 0 0)
(-1.42676e-12 0 0)
(-1.34592e-12 0 0)
(-1.45351e-12 0 0)
(-1.36092e-12 0 0)
(-1.35459e-12 0 0)
(-1.2179e-12 0 0)
(-1.14256e-12 0 0)
(-1.11824e-12 0 0)
(-1.12614e-12 0 0)
(-1.16888e-12 0 0)
(-1.26137e-12 0 0)
(-1.26757e-12 0 0)
(-1.32486e-12 0 0)
)
;

boundaryField
{
    side1
    {
        type            zeroGradient;
    }
    side2
    {
        type            zeroGradient;
    }
    empty
    {
        type            empty;
    }
}


// ************************************************************************* //
